
                                 *****************
                                 * O   R   C   A *
                                 *****************

           --- An Ab Initio, DFT and Semiempirical electronic structure package ---

                  #######################################################
                  #                        -***-                        #
                  #          Department of theory and spectroscopy      #
                  #               Directorship: Frank Neese             #
                  #        Max Planck Institute fuer Kohlenforschung    #
                  #                Kaiser Wilhelm Platz 1               #
                  #                 D-45470 Muelheim/Ruhr               #
                  #                      Germany                        #
                  #                                                     #
                  #                  All rights reserved                #
                  #                        -***-                        #
                  #######################################################


                         Program Version 4.1.0  - RELEASE  -


 With contributions from (in alphabetic order):
   Daniel Aravena         : Magnetic Properties
   Michael Atanasov       : Ab Initio Ligand Field Theory
   Alexander A. Auer      : GIAO ZORA
   Ute Becker             : Parallelization
   Giovanni Bistoni       : ED, Open-shell LED
   Martin Brehm           : Molecular dynamics
   Dmytro Bykov           : SCF Hessian
   Vijay G. Chilkuri      : MRCI spin determinant printing
   Dipayan Datta          : RHF DLPNO-CCSD density
   Achintya Kumar Dutta   : EOM-CC, STEOM-CC
   Dmitry Ganyushin       : Spin-Orbit,Spin-Spin,Magnetic field MRCI
   Miquel Garcia          : C-PCM Hessian
   Yang Guo               : DLPNO-NEVPT2, CIM, IAO-localization
   Andreas Hansen         : Spin unrestricted coupled pair/coupled cluster methods
   Benjamin Helmich-Paris : CASSCF linear response (MC-RPA)
   Lee Huntington         : MR-EOM, pCC
   Robert Izsak           : Overlap fitted RIJCOSX, COSX-SCS-MP3, EOM
   Christian Kollmar      : KDIIS, OOCD, Brueckner-CCSD(T), CCSD density
   Simone Kossmann        : Meta GGA functionals, TD-DFT gradient, OOMP2, MP2 Hessian
   Martin Krupicka        : AUTO-CI
   Lucas Lang             : DCDCAS
   Dagmar Lenk            : GEPOL surface, SMD
   Dimitrios Liakos       : Extrapolation schemes; parallel MDCI
   Dimitrios Manganas     : ROCIS; embedding schemes
   Dimitrios Pantazis     : SARC Basis sets
   Taras Petrenko         : DFT Hessian,TD-DFT gradient, ASA, ECA, R-Raman, ABS, FL, XAS/XES, NRVS
   Peter Pinski           : DLPNO-MP2, DLPNO-MP2 Gradient
   Christoph Reimann      : Effective Core Potentials
   Marius Retegan         : Local ZFS, SOC
   Christoph Riplinger    : Optimizer, TS searches, QM/MM, DLPNO-CCSD(T), (RO)-DLPNO pert. Triples
   Tobias Risthaus        : Range-separated hybrids, TD-DFT gradient, RPA, STAB
   Michael Roemelt        : Restricted open shell CIS
   Masaaki Saitow         : Open-shell DLPNO
   Barbara Sandhoefer     : DKH picture change effects
   Avijit Sen             : IP-ROCIS
   Kantharuban Sivalingam : CASSCF convergence, NEVPT2, FIC-MRCI
   Bernardo de Souza      : ESD, SOC TD-DFT
   Georgi Stoychev        : AutoAux, RI-MP2 NMR
   Willem Van den Heuvel  : Paramagnetic NMR
   Boris Wezisla          : Elementary symmetry handling
   Frank Wennmohs         : Technical directorship


 We gratefully acknowledge several colleagues who have allowed us to
 interface, adapt or use parts of their codes:
   Stefan Grimme, W. Hujo, H. Kruse,             : VdW corrections, initial TS optimization,
                  C. Bannwarth                     DFT functionals, gCP, sTDA/sTD-DF
   Ed Valeev                                     : LibInt (2-el integral package), F12 methods
   Garnet Chan, S. Sharma, J. Yang, R. Olivares  : DMRG
   Ulf Ekstrom                                   : XCFun DFT Library
   Mihaly Kallay                                 : mrcc  (arbitrary order and MRCC methods)
   Andreas Klamt, Michael Diedenhofen            : otool_cosmo (COSMO solvation model)
   Jiri Pittner, Ondrej Demel                    : Mk-CCSD
   Frank Weinhold                                : gennbo (NPA and NBO analysis)
   Christopher J. Cramer and Donald G. Truhlar   : smd solvation model
   Lars Goerigk                                  : TD-DFT with DH, B97 family of functionals
   V. Asgeirsson, H. Jonsson                     : NEB implementation
   FAccTs GmbH                                   : IRC, NEB, NEB-TS, Multilevel


 Your calculation uses the libint2 library for the computation of 2-el integrals
 For citations please refer to: http://libint.valeyev.net

 This ORCA versions uses:
   CBLAS   interface :  Fast vector & matrix operations
   LAPACKE interface :  Fast linear algebra routines
   SCALAPACK package :  Parallel linear algebra routines


----- Orbital basis set information -----
Your calculation utilizes the basis: 6-31G**
   H-He, Li-Ne : W. J. Hehre, R. Ditchfield and J.A. Pople, J. Chem. Phys. 56, 2257 (1972).
                 Note: He and Ne are unpublished basis sets taken from the Gaussian program.
                 Note: Li and B from J. D. Dill and J. A. Pople, J. Chem. Phys. 62, 2921 (1975).
   Na - Ar     : M. M. Francl, W. J. Pietro, W. J. Hehre, J. S. Binkley, M. S. Gordon, 
                 D. J. DeFrees and J. A. Pople, J. Chem. Phys. 77, 3654 (1982).
   K - Zn      : V. A. Rassolov, J. A. Pople, M. A. Ratner, and T. L. Windus, J. Chem. Phys. 109, 1223 (1998).

================================================================================
                                        WARNINGS
                       Please study these warnings very carefully!
================================================================================


WARNING: Geometry Optimization
  ===> : Switching off AutoStart
         For restart on a previous wavefunction, please use MOREAD

INFO   : the flag for use of LIBINT has been found!

================================================================================
                                       INPUT FILE
================================================================================
NAME = 01_ts_opt.inp
|  1> ! PAL4 B3LYP 6-31G** optts freq
|  2> 
|  3> %geom
|  4>  calc_hess True
|  5> end
|  6> 
|  7> *xyz 0 1
|  8>  C                 -0.30355300   -0.16526900   -0.24822500
|  9>  H                 -0.59059900   -0.67646300   -1.16517700
| 10>  C                 -0.29088500    1.24080600   -0.25361500
| 11>  H                 -0.56869700    1.75004200   -1.17448900
| 12>  C                 -0.21144000    1.97755900    0.91442300
| 13>  H                 -0.32098200    3.05799300    0.88345500
| 14>  H                  0.34898300    1.60588500    1.76367800
| 15>  C                 -0.23707500   -0.89441800    0.92535300
| 16>  H                 -0.36619900   -1.97289100    0.90271200
| 17>  H                  0.32996100   -0.52636000    1.77179100
| 18>  C                 -2.02628000    1.25564200    2.06594100
| 19>  C                 -2.03876200   -0.13054200    2.07166000
| 20>  H                 -1.70272600    1.79733600    2.94916700
| 21>  H                 -2.69274800    1.80100000    1.40858600
| 22>  H                 -1.72467900   -0.67070300    2.95922900
| 23>  H                 -2.71492700   -0.66926600    1.41876200
| 24> *
| 25> 
| 26>                          ****END OF INPUT****
================================================================================

                       *****************************
                       * Geometry Optimization Run *
                       *****************************

Geometry optimization settings:
Update method            Update   .... Bofill
Choice of coordinates    CoordSys .... Z-matrix Internals
Initial Hessian          InHess   .... Almoef's Model

Convergence Tolerances:
Energy Change            TolE     ....  5.0000e-06 Eh
Max. Gradient            TolMAXG  ....  3.0000e-04 Eh/bohr
RMS Gradient             TolRMSG  ....  1.0000e-04 Eh/bohr
Max. Displacement        TolMAXD  ....  4.0000e-03 bohr
RMS Displacement         TolRMSD  ....  2.0000e-03 bohr

------------------------------------------------------------------------------
                        ORCA OPTIMIZATION COORDINATE SETUP
------------------------------------------------------------------------------

The optimization will be done in new redundant internal coordinates
Making redundant internal coordinates   ...  (new redundants) done
Following TS mode number                ...     0
Evaluating the initial hessian          ...  (Is done on the fly) done
Evaluating the coordinates              ...  done
Calculating the B-matrix                .... done
Calculating the G-matrix                .... done
Diagonalizing the G-matrix              .... done
The first mode is                       ....  119
The number of degrees of freedom        ....   42

    -----------------------------------------------------------------
                    Redundant Internal Coordinates


    -----------------------------------------------------------------
         Definition                    Initial Value    d2E/dq (diagonal element)
    -----------------------------------------------------------------
      1. B(H   1,C   0)                  1.0884         0.000000   
      2. B(C   2,C   0)                  1.4061         0.000000   
      3. B(H   3,C   2)                  1.0884         0.000000   
      4. B(C   4,C   2)                  1.3833         0.000000   
      5. B(H   5,C   4)                  1.0864         0.000000   
      6. B(H   6,C   4)                  1.0833         0.000000   
      7. B(C   7,C   0)                  1.3832         0.000000   
      8. B(H   8,C   7)                  1.0864         0.000000   
      9. B(H   9,C   7)                  1.0833         0.000000   
     10. B(C  10,H   6)                  2.4199         0.000000   
     11. B(C  10,H   5)                  2.7486         0.000000   
     12. B(C  10,C   4)                  2.2673         0.000000   
     13. B(C  10,C   2)                  2.8969         0.000000   
     14. B(C  11,C   0)                  2.8972         0.000000   
     15. B(C  11,H   8)                  2.7492         0.000000   
     16. B(C  11,H   9)                  2.4202         0.000000   
     17. B(C  11,C   7)                  2.2680         0.000000   
     18. B(C  11,C  10)                  1.3863         0.000000   
     19. B(H  12,H   6)                  2.3773         0.000000   
     20. B(H  12,C  10)                  1.0855         0.000000   
     21. B(H  12,H   5)                  2.7867         0.000000   
     22. B(H  12,C   4)                  2.5291         0.000000   
     23. B(H  13,C  10)                  1.0834         0.000000   
     24. B(H  13,H   5)                  2.7352         0.000000   
     25. B(H  13,C   4)                  2.5362         0.000000   
     26. B(H  14,H   8)                  2.7875         0.000000   
     27. B(H  14,C  11)                  1.0854         0.000000   
     28. B(H  14,C   7)                  2.5298         0.000000   
     29. B(H  14,H   9)                  2.3775         0.000000   
     30. B(H  15,H   8)                  2.7354         0.000000   
     31. B(H  15,C  11)                  1.0834         0.000000   
     32. B(H  15,C   7)                  2.5365         0.000000   
     33. A(C   7,C   0,C  11)           49.8906         0.000000   
     34. A(H   1,C   0,C   2)          117.9576         0.000000   
     35. A(H   1,C   0,C  11)          121.4858         0.000000   
     36. A(H   1,C   0,C   7)          118.6785         0.000000   
     37. A(C   2,C   0,C  11)           89.7983         0.000000   
     38. A(C   2,C   0,C   7)          122.0003         0.000000   
     39. A(C   4,C   2,C  10)           49.8767         0.000000   
     40. A(C   0,C   2,C   4)          121.9969         0.000000   
     41. A(H   3,C   2,C  10)          121.4783         0.000000   
     42. A(C   0,C   2,H   3)          117.9576         0.000000   
     43. A(H   3,C   2,C   4)          118.6799         0.000000   
     44. A(C   0,C   2,C  10)           89.8083         0.000000   
     45. A(H   5,C   4,H   6)          114.5653         0.000000   
     46. A(C   2,C   4,C  10)          102.3155         0.000000   
     47. A(C   2,C   4,H   6)          120.5950         0.000000   
     48. A(C   2,C   4,H   5)          119.9885         0.000000   
     49. A(H   5,C   4,C  10)          104.5022         0.000000   
     50. A(H   6,C   4,C  10)           84.6461         0.000000   
     51. A(H   8,C   7,H   9)          114.5687         0.000000   
     52. A(H   8,C   7,C  11)          104.5051         0.000000   
     53. A(H   9,C   7,C  11)           84.6327         0.000000   
     54. A(C   0,C   7,H   8)          119.9924         0.000000   
     55. A(C   0,C   7,C  11)          102.3042         0.000000   
     56. A(C   0,C   7,H   9)          120.5970         0.000000   
     57. A(H  12,C  10,H  13)          115.2063         0.000000   
     58. A(C   2,C  10,H  12)          118.3927         0.000000   
     59. A(C   2,C  10,C  11)           90.2049         0.000000   
     60. A(C  11,C  10,H  13)          120.0215         0.000000   
     61. A(C   2,C  10,H  13)           83.4116         0.000000   
     62. A(C  11,C  10,H  12)          119.8910         0.000000   
     63. A(C   2,C  10,C   4)           27.8078         0.000000   
     64. A(C   4,C  10,H  13)           91.3734         0.000000   
     65. A(C   4,C  10,H  12)           90.9032         0.000000   
     66. A(C   4,C  10,C  11)          109.1284         0.000000   
     67. A(C   0,C  11,H  15)           83.4128         0.000000   
     68. A(C   0,C  11,H  14)          118.3907         0.000000   
     69. A(C   0,C  11,C   7)           27.8052         0.000000   
     70. A(C   0,C  11,C  10)           90.1885         0.000000   
     71. A(C   7,C  11,H  15)           91.3596         0.000000   
     72. A(C   7,C  11,H  14)           90.9061         0.000000   
     73. A(C   7,C  11,C  10)          109.1207         0.000000   
     74. A(H  14,C  11,H  15)          115.2093         0.000000   
     75. A(C  10,C  11,H  15)          120.0248         0.000000   
     76. A(C  10,C  11,H  14)          119.8930         0.000000   
     77. D(H   3,C   2,C   0,C  11)   -126.1190         0.000000   
     78. D(H   3,C   2,C   0,H   1)     -0.0025         0.000000   
     79. D(C   4,C   2,C   0,C   7)     -0.0119         0.000000   
     80. D(C  10,C   2,C   0,C   7)    -40.3736         0.000000   
     81. D(C  10,C   2,C   0,H   1)    126.1116         0.000000   
     82. D(H   3,C   2,C   0,C   7)   -166.4877         0.000000   
     83. D(C   4,C   2,C   0,C  11)     40.3567         0.000000   
     84. D(C  10,C   2,C   0,C  11)     -0.0049         0.000000   
     85. D(C   4,C   2,C   0,H   1)    166.4733         0.000000   
     86. D(H   6,C   4,C   2,C   0)     33.1608         0.000000   
     87. D(H   6,C   4,C   2,H   3)   -160.4574         0.000000   
     88. D(H   5,C   4,C   2,C  10)   -114.9559         0.000000   
     89. D(H   5,C   4,C   2,C   0)   -172.8343         0.000000   
     90. D(C  10,C   4,C   2,H   3)    108.5034         0.000000   
     91. D(H   6,C   4,C   2,C  10)     91.0392         0.000000   
     92. D(C  10,C   4,C   2,C   0)    -57.8784         0.000000   
     93. D(H   5,C   4,C   2,H   3)     -6.4525         0.000000   
     94. D(C  11,C   7,C   0,C   2)     57.8729         0.000000   
     95. D(C  11,C   7,C   0,H   1)   -108.5186         0.000000   
     96. D(H   8,C   7,C   0,H   1)      6.4347         0.000000   
     97. D(H   9,C   7,C   0,H   1)    160.4643         0.000000   
     98. D(H   8,C   7,C   0,C   2)    172.8262         0.000000   
     99. D(H   9,C   7,C   0,C   2)    -33.1442         0.000000   
    100. D(H   9,C   7,C   0,C  11)    -91.0171         0.000000   
    101. D(H   8,C   7,C   0,C  11)    114.9533         0.000000   
    102. D(H  12,C  10,C   2,H   3)   -112.1415         0.000000   
    103. D(C  11,C  10,C   2,C   4)   -134.0788         0.000000   
    104. D(C  11,C  10,C   2,H   3)    123.2175         0.000000   
    105. D(H  12,C  10,C   2,C   0)    124.6512         0.000000   
    106. D(C  11,C  10,C   2,C   0)      0.0103         0.000000   
    107. D(H  12,C  10,C   2,C   4)     -9.4379         0.000000   
    108. D(C   2,C  10,C   4,H   5)    125.7963         0.000000   
    109. D(H  13,C  10,C   4,H   6)    166.7624         0.000000   
    110. D(H  13,C  10,C   4,H   5)     52.7425         0.000000   
    111. D(H  13,C  10,C   4,C   2)    -73.0538         0.000000   
    112. D(H  12,C  10,C   4,H   6)     51.5211         0.000000   
    113. D(H  12,C  10,C   4,C   2)    171.7050         0.000000   
    114. D(C  11,C  10,C   4,H   5)    175.2923         0.000000   
    115. D(C  11,C  10,C   4,C   2)     49.4960         0.000000   
    116. D(C  11,C  10,C   4,H   6)    -70.6879         0.000000   
    117. D(C   4,C  10,C   2,H   3)   -102.7036         0.000000   
    118. D(C   4,C  10,C   2,C   0)    134.0891         0.000000   
    119. D(H  13,C  10,C   2,C   4)    105.7065         0.000000   
    120. D(H  12,C  10,C   4,H   5)    -62.4987         0.000000   
    121. D(H  13,C  10,C   2,H   3)      3.0028         0.000000   
    122. D(C   2,C  10,C   4,H   6)   -120.1839         0.000000   
    123. D(H  13,C  10,C   2,C   0)   -120.2044         0.000000   
    124. D(H  14,C  11,C   7,C   0)   -171.6737         0.000000   
    125. D(C  10,C  11,C   7,H   9)     70.7200         0.000000   
    126. D(C  10,C  11,C   7,H   8)   -175.2599         0.000000   
    127. D(C   7,C  11,C   0,C   2)   -134.0948         0.000000   
    128. D(C   7,C  11,C   0,H   1)    102.7022         0.000000   
    129. D(H  15,C  11,C   0,C   7)   -105.6748         0.000000   
    130. D(H  15,C  11,C   0,C   2)    120.2303         0.000000   
    131. D(H  15,C  11,C   0,H   1)     -2.9727         0.000000   
    132. D(H  14,C  11,C   0,C   7)      9.4733         0.000000   
    133. D(H  14,C  11,C   0,C   2)   -124.6215         0.000000   
    134. D(C  10,C  11,C   7,C   0)    -49.4632         0.000000   
    135. D(H  14,C  11,C   0,H   1)    112.1755         0.000000   
    136. D(C  10,C  11,C   0,C   7)    134.1051         0.000000   
    137. D(C  10,C  11,C   0,C   2)      0.0103         0.000000   
    138. D(H  14,C  11,C   7,H   8)     62.5296         0.000000   
    139. D(C  10,C  11,C   0,H   1)   -123.1927         0.000000   
    140. D(C   7,C  11,C  10,C   4)     -0.0175         0.000000   
    141. D(C   7,C  11,C  10,C   2)     20.7585         0.000000   
    142. D(C   7,C  11,C  10,H  13)    103.2630         0.000000   
    143. D(C   7,C  11,C  10,H  12)   -102.6450         0.000000   
    144. D(C   0,C  11,C  10,C   4)    -20.7810         0.000000   
    145. D(C   0,C  11,C  10,C   2)     -0.0050         0.000000   
    146. D(C   0,C  11,C  10,H  12)   -123.4085         0.000000   
    147. D(H  15,C  11,C  10,C   4)   -103.2771         0.000000   
    148. D(H  15,C  11,C  10,C   2)    -82.5010         0.000000   
    149. D(H  15,C  11,C  10,H  13)      0.0034         0.000000   
    150. D(H  15,C  11,C  10,H  12)    154.0955         0.000000   
    151. D(H  14,C  11,C  10,C   4)    102.6095         0.000000   
    152. D(H  14,C  11,C  10,C   2)    123.3855         0.000000   
    153. D(H  14,C  11,C  10,H  13)   -154.1100         0.000000   
    154. D(C   0,C  11,C  10,H  13)     82.4995         0.000000   
    155. D(H  14,C  11,C  10,H  12)     -0.0180         0.000000   
    156. D(C   0,C  11,C   7,H   9)    120.1831         0.000000   
    157. D(C   0,C  11,C   7,H   8)   -125.7967         0.000000   
    158. D(H  15,C  11,C   7,H   9)   -166.7346         0.000000   
    159. D(H  15,C  11,C   7,H   8)    -52.7144         0.000000   
    160. D(H  15,C  11,C   7,C   0)     73.0823         0.000000   
    161. D(H  14,C  11,C   7,H   9)    -51.4906         0.000000   
    -----------------------------------------------------------------

Number of atoms                         .... 16
Number of degrees of freedom            .... 161

         *************************************************************
         *                GEOMETRY OPTIMIZATION CYCLE   1            *
         *************************************************************
---------------------------------
CARTESIAN COORDINATES (ANGSTROEM)
---------------------------------
  C     -0.303553   -0.165269   -0.248225
  H     -0.590599   -0.676463   -1.165177
  C     -0.290885    1.240806   -0.253615
  H     -0.568697    1.750042   -1.174489
  C     -0.211440    1.977559    0.914423
  H     -0.320982    3.057993    0.883455
  H      0.348983    1.605885    1.763678
  C     -0.237075   -0.894418    0.925353
  H     -0.366199   -1.972891    0.902712
  H      0.329961   -0.526360    1.771791
  C     -2.026280    1.255642    2.065941
  C     -2.038762   -0.130542    2.071660
  H     -1.702726    1.797336    2.949167
  H     -2.692748    1.801000    1.408586
  H     -1.724679   -0.670703    2.959229
  H     -2.714927   -0.669266    1.418762

----------------------------
CARTESIAN COORDINATES (A.U.)
----------------------------
  NO LB      ZA    FRAG     MASS         X           Y           Z
   0 C     6.0000    0    12.011   -0.573632   -0.312313   -0.469077
   1 H     1.0000    0     1.008   -1.116070   -1.278330   -2.201865
   2 C     6.0000    0    12.011   -0.549693    2.344784   -0.479263
   3 H     1.0000    0     1.008   -1.074682    3.307100   -2.219463
   4 C     6.0000    0    12.011   -0.399564    3.737045    1.728009
   5 H     1.0000    0     1.008   -0.606568    5.778769    1.669488
   6 H     1.0000    0     1.008    0.659482    3.034683    3.332868
   7 C     6.0000    0    12.011   -0.448007   -1.690205    1.748664
   8 H     1.0000    0     1.008   -0.692016   -3.728224    1.705878
   9 H     1.0000    0     1.008    0.623536   -0.994676    3.348200
  10 C     6.0000    0    12.011   -3.829114    2.372820    3.904063
  11 C     6.0000    0    12.011   -3.852702   -0.246689    3.914870
  12 H     1.0000    0     1.008   -3.217686    3.396473    5.573118
  13 H     1.0000    0     1.008   -5.088556    3.403397    2.661842
  14 H     1.0000    0     1.008   -3.259171   -1.267445    5.592132
  15 H     1.0000    0     1.008   -5.130469   -1.264729    2.681072

--------------------------------
INTERNAL COORDINATES (ANGSTROEM)
--------------------------------
 C      0   0   0     0.000000000000     0.00000000     0.00000000
 H      1   0   0     1.088354575520     0.00000000     0.00000000
 C      1   2   0     1.406142395332   117.95762448     0.00000000
 H      3   1   2     1.088351843347   117.95758071     0.00000000
 C      3   1   2     1.383267602627   121.99687214   166.47325085
 H      5   3   1     1.086414329408   119.98845550   187.16570887
 H      5   3   1     1.083258766976   120.59496314    33.16082797
 C      1   2   3     1.383243619457   118.67845112   166.94437671
 H      8   1   2     1.086411355788   119.99237678     6.43468504
 H      8   1   2     1.083260727851   120.59701419   160.46429432
 C      5   3   1     2.267333695073   102.31549838   302.12160579
 C     11   5   3     1.386251993377   109.12837841    49.49600125
 H     11   5   3     1.085452784615    90.90318441   171.70495170
 H     11   5   3     1.083379222255    91.37337086   286.94624541
 H     12  11   5     1.085449568875   119.89298786   102.60947152
 H     12  11   5     1.083373644596   120.02476593   256.72293410

---------------------------
INTERNAL COORDINATES (A.U.)
---------------------------
 C      0   0   0     0.000000000000     0.00000000     0.00000000
 H      1   0   0     2.056692084334     0.00000000     0.00000000
 C      1   2   0     2.657224032473   117.95762448     0.00000000
 H      3   1   2     2.056686921273   117.95758071     0.00000000
 C      3   1   2     2.613996938891   121.99687214   166.47325085
 H      5   3   1     2.053025550550   119.98845550   187.16570887
 H      5   3   1     2.047062401754   120.59496314    33.16082797
 C      1   2   3     2.613951617268   118.67845112   166.94437671
 H      8   1   2     2.053019931222   119.99237678     6.43468504
 H      8   1   2     2.047066107270   120.59701419   160.46429432
 C      5   3   1     4.284639737900   102.31549838   302.12160579
 C     11   5   3     2.619636620084   109.12837841    49.49600125
 H     11   5   3     2.051208494224    90.90318441   171.70495170
 H     11   5   3     2.047290029242    91.37337086   286.94624541
 H     12  11   5     2.051202417357   119.89298786   102.60947152
 H     12  11   5     2.047279488994   120.02476593   256.72293410

---------------------
BASIS SET INFORMATION
---------------------
There are 2 groups of distinct atoms

 Group   1 Type C   : 10s4p1d contracted to 3s2p1d pattern {631/31/1}
 Group   2 Type H   : 4s1p contracted to 2s1p pattern {31/1}

Atom   0C    basis set group =>   1
Atom   1H    basis set group =>   2
Atom   2C    basis set group =>   1
Atom   3H    basis set group =>   2
Atom   4C    basis set group =>   1
Atom   5H    basis set group =>   2
Atom   6H    basis set group =>   2
Atom   7C    basis set group =>   1
Atom   8H    basis set group =>   2
Atom   9H    basis set group =>   2
Atom  10C    basis set group =>   1
Atom  11C    basis set group =>   1
Atom  12H    basis set group =>   2
Atom  13H    basis set group =>   2
Atom  14H    basis set group =>   2
Atom  15H    basis set group =>   2


           ************************************************************
           *        Program running with 4 parallel MPI-processes     *
           *              working on a common directory               *
           ************************************************************
------------------------------------------------------------------------------
                           ORCA GTO INTEGRAL CALCULATION
------------------------------------------------------------------------------

                         BASIS SET STATISTICS AND STARTUP INFO

 # of primitive gaussian shells          ...  140
 # of primitive gaussian functions       ...  232
 # of contracted shells                  ...   66
 # of contracted basis functions         ...  134
 Highest angular momentum                ...    2
 Maximum contraction depth               ...    6
 Integral package used                   ... LIBINT
 Integral threshhold            Thresh   ...  2.500e-11
 Primitive cut-off              TCut     ...  2.500e-12


------------------------------ INTEGRAL EVALUATION ----------------------------


 * One electron integrals 
 Pre-screening matrix                    ... done
 Shell pair data                         ... done (   0.001 sec)



           ************************************************************
           *        Program running with 4 parallel MPI-processes     *
           *              working on a common directory               *
           ************************************************************
-------------------------------------------------------------------------------
                                 ORCA SCF
-------------------------------------------------------------------------------

------------
SCF SETTINGS
------------
Hamiltonian:
 Density Functional     Method          .... DFT(GTOs)
 Exchange Functional    Exchange        .... B88
   X-Alpha parameter    XAlpha          ....  0.666667
   Becke's b parameter  XBeta           ....  0.004200
 Correlation Functional Correlation     .... LYP
 LDA part of GGA corr.  LDAOpt          .... VWN-5
 Gradients option       PostSCFGGA      .... off
 Hybrid DFT is turned on
   Fraction HF Exchange ScalHFX         ....  0.200000
   Scaling of DF-GGA-X  ScalDFX         ....  0.720000
   Scaling of DF-GGA-C  ScalDFC         ....  0.810000
   Scaling of DF-LDA-C  ScalLDAC        ....  1.000000
   Perturbative correction              ....  0.000000
   Density functional embedding theory  .... OFF
   NL short-range parameter             ....  4.800000


General Settings:
 Integral files         IntName         .... 01_ts_opt
 Hartree-Fock type      HFTyp           .... RHF
 Total Charge           Charge          ....    0
 Multiplicity           Mult            ....    1
 Number of Electrons    NEL             ....   46
 Basis Dimension        Dim             ....  134
 Nuclear Repulsion      ENuc            ....    224.1440840655 Eh

Convergence Acceleration:
 DIIS                   CNVDIIS         .... on
   Start iteration      DIISMaxIt       ....    12
   Startup error        DIISStart       ....  0.200000
   # of expansion vecs  DIISMaxEq       ....     5
   Bias factor          DIISBfac        ....   1.050
   Max. coefficient     DIISMaxC        ....  10.000
 Newton-Raphson         CNVNR           .... off
 SOSCF                  CNVSOSCF        .... on
   Start iteration      SOSCFMaxIt      ....   150
   Startup grad/error   SOSCFStart      ....  0.003300
 Level Shifting         CNVShift        .... on
   Level shift para.    LevelShift      ....    0.2500
   Turn off err/grad.   ShiftErr        ....    0.0010
 Zerner damping         CNVZerner       .... off
 Static damping         CNVDamp         .... on
   Fraction old density DampFac         ....    0.7000
   Max. Damping (<1)    DampMax         ....    0.9800
   Min. Damping (>=0)   DampMin         ....    0.0000
   Turn off err/grad.   DampErr         ....    0.1000
 Fernandez-Rico         CNVRico         .... off

SCF Procedure:
 Maximum # iterations   MaxIter         ....   125
 SCF integral mode      SCFMode         .... Direct
   Integral package                     .... LIBINT
 Reset frequency        DirectResetFreq ....    20
 Integral Threshold     Thresh          ....  2.500e-11 Eh
 Primitive CutOff       TCut            ....  2.500e-12 Eh

Convergence Tolerance:
 Convergence Check Mode ConvCheckMode   .... Total+1el-Energy
 Convergence forced     ConvForced      .... 0
 Energy Change          TolE            ....  1.000e-08 Eh
 1-El. energy change                    ....  1.000e-05 Eh
 Orbital Gradient       TolG            ....  1.000e-05
 Orbital Rotation angle TolX            ....  1.000e-05
 DIIS Error             TolErr          ....  5.000e-07


Diagonalization of the overlap matrix:
Smallest eigenvalue                        ... 2.263e-03
Time for diagonalization                   ...    0.004 sec
Threshold for overlap eigenvalues          ... 1.000e-08
Number of eigenvalues below threshold      ... 0
Time for construction of square roots      ...    0.002 sec
Total time needed                          ...    0.006 sec

-------------------
DFT GRID GENERATION
-------------------

General Integration Accuracy     IntAcc      ...  4.340
Radial Grid Type                 RadialGrid  ... Gauss-Chebyshev
Angular Grid (max. acc.)         AngularGrid ... Lebedev-110
Angular grid pruning method      GridPruning ... 3 (G Style)
Weight generation scheme         WeightScheme... Becke
Basis function cutoff            BFCut       ...    1.0000e-11
Integration weight cutoff        WCut        ...    1.0000e-14
Grids for H and He will be reduced by one unit

# of grid points (after initial pruning)     ...  17876 (   0.0 sec)
# of grid points (after weights+screening)   ...  16479 (   0.0 sec)
nearest neighbour list constructed           ...    0.0 sec
Grid point re-assignment to atoms done       ...    0.0 sec
Grid point division into batches done        ...    0.0 sec
Reduced shell lists constructed in    0.1 sec

Total number of grid points                  ...    16479
Total number of batches                      ...      267
Average number of points per batch           ...       61
Average number of grid points per atom       ...     1030
Average number of shells per batch           ...    48.76 (73.89%)
Average number of basis functions per batch  ...    98.03 (73.16%)
Average number of large shells per batch     ...    38.12 (78.17%)
Average number of large basis fcns per batch ...    75.38 (76.90%)
Maximum spatial batch extension              ...  25.73, 16.11, 15.52 au
Average spatial batch extension              ...   1.08,  0.83,  0.88 au

Time for grid setup =    0.106 sec

------------------------------
INITIAL GUESS: MODEL POTENTIAL
------------------------------
Loading Hartree-Fock densities                     ... done
Calculating cut-offs                               ... done
Setting up the integral package                    ... done
Initializing the effective Hamiltonian             ... done
Starting the Coulomb interaction                   ... done (   0.0 sec)
Reading the grid                                   ... done
Mapping shells                                     ... done
Starting the XC term evaluation                    ... done (   0.0 sec)
  promolecular density results
     # of electrons  =     46.012656167
     EX              =    -33.726932911
     EC              =     -1.466083965
     EX+EC           =    -35.193016876
Transforming the Hamiltonian                       ... done (   0.0 sec)
Diagonalizing the Hamiltonian                      ... done (   0.0 sec)
Back transforming the eigenvectors                 ... done (   0.0 sec)
Now organizing SCF variables                       ... done
                      ------------------
                      INITIAL GUESS DONE (   0.3 sec)
                      ------------------
--------------
SCF ITERATIONS
--------------
ITER       Energy         Delta-E        Max-DP      RMS-DP      [F,P]     Damp
               ***  Starting incremental Fock matrix formation  ***
  0   -234.2007507736   0.000000000000 0.04618019  0.00217162  0.1353626 0.7000
  1   -234.2850387635  -0.084287989939 0.03555520  0.00167776  0.0741802 0.7000
                               ***Turning on DIIS***
  2   -234.3218033727  -0.036764609177 0.06254634  0.00289058  0.0313906 0.0000
  3   -234.3729173668  -0.051113994123 0.02605367  0.00117181  0.0382677 0.0000
  4   -234.3870858890  -0.014168522183 0.00931980  0.00032969  0.0082969 0.0000
                      *** Initiating the SOSCF procedure ***
                           *** Shutting down DIIS ***
                      *** Re-Reading the Fockian *** 
                      *** Removing any level shift *** 
ITER      Energy       Delta-E        Grad      Rot      Max-DP    RMS-DP
  5   -234.38780070  -0.0007148100  0.000833  0.000833  0.003004  0.000109
               *** Restarting incremental Fock matrix formation ***
  6   -234.38784500  -0.0000443025  0.000415  0.000850  0.001843  0.000065
  7   -234.38784546  -0.0000004595  0.000349  0.000490  0.000420  0.000020
  8   -234.38784823  -0.0000027668  0.000089  0.000344  0.000242  0.000010
  9   -234.38784810   0.0000001285  0.000128  0.000220  0.000144  0.000006
 10   -234.38784834  -0.0000002451  0.000010  0.000031  0.000023  0.000001
 11   -234.38784834   0.0000000008  0.000015  0.000021  0.000015  0.000001
                  ***Gradient check signals convergence***
              ***Rediagonalizing the Fockian in SOSCF/NRSCF***

               *****************************************************
               *                     SUCCESS                       *
               *           SCF CONVERGED AFTER  12 CYCLES          *
               *****************************************************

Setting up the final grid:

General Integration Accuracy     IntAcc      ...  4.670
Radial Grid Type                 RadialGrid  ... Gauss-Chebyshev
Angular Grid (max. acc.)         AngularGrid ... Lebedev-302
Angular grid pruning method      GridPruning ... 3 (G Style)
Weight generation scheme         WeightScheme... Becke
Basis function cutoff            BFCut       ...    1.0000e-11
Integration weight cutoff        WCut        ...    1.0000e-14
Grids for H and He will be reduced by one unit

# of grid points (after initial pruning)     ...  71212 (   0.0 sec)
# of grid points (after weights+screening)   ...  64761 (   0.1 sec)
nearest neighbour list constructed           ...    0.0 sec
Grid point re-assignment to atoms done       ...    0.0 sec
Grid point division into batches done        ...    0.2 sec
Reduced shell lists constructed in    0.2 sec

Total number of grid points                  ...    64761
Total number of batches                      ...     1020
Average number of points per batch           ...       63
Average number of grid points per atom       ...     4048
Average number of shells per batch           ...    44.76 (67.82%)
Average number of basis functions per batch  ...    89.32 (66.65%)
Average number of large shells per batch     ...    34.20 (76.39%)
Average number of large basis fcns per batch ...    67.43 (75.50%)
Maximum spatial batch extension              ...  17.32, 15.27, 14.38 au
Average spatial batch extension              ...   0.66,  0.60,  0.60 au

Final grid set up in    0.4 sec
Final integration                            ... done (   0.1 sec)
Change in XC energy                          ...     0.001312629
Integrated number of electrons               ...    45.999765017
Previous integrated no of electrons          ...    46.012376375

----------------
TOTAL SCF ENERGY
----------------

Total Energy       :         -234.38653572 Eh           -6377.98189 eV

Components:
Nuclear Repulsion  :          224.14408407 Eh            6099.27061 eV
Electronic Energy  :         -458.53061978 Eh          -12477.25250 eV
One Electron Energy:         -758.27392137 Eh          -20633.68240 eV
Two Electron Energy:          299.74330159 Eh            8156.42990 eV

Virial components:
Potential Energy   :         -467.18115620 Eh          -12712.64556 eV
Kinetic Energy     :          232.79462048 Eh            6334.66367 eV
Virial Ratio       :            2.00683828


DFT components:
N(Alpha)           :       22.999882508323 electrons
N(Beta)            :       22.999882508323 electrons
N(Total)           :       45.999765016645 electrons
E(X)               :      -27.411444817619 Eh       
E(C)               :       -1.744145652865 Eh       
E(XC)              :      -29.155590470485 Eh       
DFET-embed. en.    :        0.000000000000 Eh       

---------------
SCF CONVERGENCE
---------------

  Last Energy change         ...   -3.8831e-09  Tolerance :   1.0000e-08
  Last MAX-Density change    ...    4.3841e-06  Tolerance :   1.0000e-07
  Last RMS-Density change    ...    2.7159e-07  Tolerance :   5.0000e-09
  Last Orbital Gradient      ...    1.9246e-06  Tolerance :   1.0000e-05
  Last Orbital Rotation      ...    3.2817e-06  Tolerance :   1.0000e-05

             **** THE GBW FILE WAS UPDATED (01_ts_opt.gbw) ****
             **** DENSITY FILE WAS UPDATED (01_ts_opt.scfp.tmp) ****
             **** ENERGY FILE WAS UPDATED (01_ts_opt.en.tmp) ****
----------------
ORBITAL ENERGIES
----------------

  NO   OCC          E(Eh)            E(eV) 
   0   2.0000     -10.178609      -276.9740 
   1   2.0000     -10.178557      -276.9726 
   2   2.0000     -10.174278      -276.8562 
   3   2.0000     -10.173792      -276.8429 
   4   2.0000     -10.168121      -276.6886 
   5   2.0000     -10.167720      -276.6777 
   6   2.0000      -0.797438       -21.6994 
   7   2.0000      -0.736384       -20.0380 
   8   2.0000      -0.707517       -19.2525 
   9   2.0000      -0.613534       -16.6951 
  10   2.0000      -0.572093       -15.5674 
  11   2.0000      -0.510583       -13.8937 
  12   2.0000      -0.481288       -13.0965 
  13   2.0000      -0.454712       -12.3734 
  14   2.0000      -0.417889       -11.3713 
  15   2.0000      -0.397715       -10.8224 
  16   2.0000      -0.395672       -10.7668 
  17   2.0000      -0.357041        -9.7156 
  18   2.0000      -0.346336        -9.4243 
  19   2.0000      -0.332933        -9.0596 
  20   2.0000      -0.332678        -9.0526 
  21   2.0000      -0.218809        -5.9541 
  22   2.0000      -0.216516        -5.8917 
  23   0.0000      -0.006240        -0.1698 
  24   0.0000       0.021592         0.5875 
  25   0.0000       0.099137         2.6977 
  26   0.0000       0.112849         3.0708 
  27   0.0000       0.126995         3.4557 
  28   0.0000       0.146572         3.9884 
  29   0.0000       0.151233         4.1153 
  30   0.0000       0.154490         4.2039 
  31   0.0000       0.176167         4.7937 
  32   0.0000       0.207320         5.6415 
  33   0.0000       0.209006         5.6873 
  34   0.0000       0.242870         6.6088 
  35   0.0000       0.252918         6.8822 
  36   0.0000       0.293882         7.9969 
  37   0.0000       0.325715         8.8632 
  38   0.0000       0.365863         9.9556 
  39   0.0000       0.433453        11.7948 
  40   0.0000       0.463962        12.6250 
  41   0.0000       0.502288        13.6680 
  42   0.0000       0.523344        14.2409 
  43   0.0000       0.555519        15.1164 
  44   0.0000       0.578513        15.7421 
  45   0.0000       0.580074        15.7846 
  46   0.0000       0.617432        16.8012 
  47   0.0000       0.626539        17.0490 
  48   0.0000       0.646574        17.5942 
  49   0.0000       0.660453        17.9719 
  50   0.0000       0.671935        18.2843 
  51   0.0000       0.676980        18.4216 
  52   0.0000       0.727370        19.7928 
  53   0.0000       0.743324        20.2269 
  54   0.0000       0.800676        21.7875 
  55   0.0000       0.838012        22.8035 
  56   0.0000       0.846327        23.0297 
  57   0.0000       0.848266        23.0825 
  58   0.0000       0.856050        23.2943 
  59   0.0000       0.862295        23.4643 
  60   0.0000       0.878554        23.9067 
  61   0.0000       0.927096        25.2276 
  62   0.0000       0.938754        25.5448 
  63   0.0000       0.948457        25.8088 
  64   0.0000       0.968748        26.3610 
  65   0.0000       0.997065        27.1315 
  66   0.0000       1.046228        28.4693 
  67   0.0000       1.056930        28.7605 
  68   0.0000       1.101859        29.9831 
  69   0.0000       1.132767        30.8242 
  70   0.0000       1.228690        33.4344 
  71   0.0000       1.274690        34.6861 
  72   0.0000       1.316607        35.8267 
  73   0.0000       1.357647        36.9435 
  74   0.0000       1.399576        38.0844 
  75   0.0000       1.447827        39.3974 
  76   0.0000       1.476151        40.1681 
  77   0.0000       1.521452        41.4008 
  78   0.0000       1.581565        43.0366 
  79   0.0000       1.602257        43.5996 
  80   0.0000       1.670233        45.4493 
  81   0.0000       1.786400        48.6104 
  82   0.0000       1.822011        49.5794 
  83   0.0000       1.846856        50.2555 
  84   0.0000       1.901159        51.7332 
  85   0.0000       1.903418        51.7946 
  86   0.0000       1.922655        52.3181 
  87   0.0000       1.939759        52.7835 
  88   0.0000       1.985231        54.0209 
  89   0.0000       1.988761        54.1169 
  90   0.0000       2.029757        55.2325 
  91   0.0000       2.039874        55.5078 
  92   0.0000       2.053852        55.8882 
  93   0.0000       2.111637        57.4606 
  94   0.0000       2.148686        58.4687 
  95   0.0000       2.189830        59.5883 
  96   0.0000       2.196115        59.7593 
  97   0.0000       2.226448        60.5847 
  98   0.0000       2.230678        60.6998 
  99   0.0000       2.352954        64.0271 
 100   0.0000       2.357212        64.1430 
 101   0.0000       2.380812        64.7852 
 102   0.0000       2.381772        64.8113 
 103   0.0000       2.427396        66.0528 
 104   0.0000       2.445587        66.5478 
 105   0.0000       2.450615        66.6846 
 106   0.0000       2.464653        67.0666 
 107   0.0000       2.481072        67.5134 
 108   0.0000       2.507985        68.2458 
 109   0.0000       2.540574        69.1325 
 110   0.0000       2.546579        69.2959 
 111   0.0000       2.590336        70.4866 
 112   0.0000       2.610299        71.0299 
 113   0.0000       2.610434        71.0335 
 114   0.0000       2.683888        73.0323 
 115   0.0000       2.726935        74.2037 
 116   0.0000       2.749533        74.8186 
 117   0.0000       2.771163        75.4072 
 118   0.0000       2.797238        76.1167 
 119   0.0000       2.871339        78.1331 
 120   0.0000       2.934962        79.8644 
 121   0.0000       2.941157        80.0329 
 122   0.0000       3.035112        82.5896 
 123   0.0000       3.155408        85.8630 
 124   0.0000       3.208931        87.3194 
 125   0.0000       3.247888        88.3795 
 126   0.0000       3.295983        89.6883 
 127   0.0000       3.360477        91.4432 
 128   0.0000       3.364043        91.5403 
 129   0.0000       3.467067        94.3437 
 130   0.0000       3.501879        95.2910 
 131   0.0000       3.536875        96.2432 
 132   0.0000       3.703427       100.7754 
 133   0.0000       3.789141       103.1078 

                    ********************************
                    * MULLIKEN POPULATION ANALYSIS *
                    ********************************

-----------------------
MULLIKEN ATOMIC CHARGES
-----------------------
   0 C :   -0.042920
   1 H :    0.075329
   2 C :   -0.042829
   3 H :    0.075250
   4 C :   -0.245208
   5 H :    0.100087
   6 H :    0.112165
   7 C :   -0.245495
   8 H :    0.100130
   9 H :    0.112289
  10 C :   -0.211881
  11 C :   -0.211507
  12 H :    0.102596
  13 H :    0.109871
  14 H :    0.102417
  15 H :    0.109706
Sum of atomic charges:    0.0000000

--------------------------------
MULLIKEN REDUCED ORBITAL CHARGES
--------------------------------
  0 C s       :     3.149825  s :     3.149825
      pz      :     0.915521  p :     2.858051
      px      :     1.003904
      py      :     0.938626
      dz2     :     0.008289  d :     0.035043
      dxz     :     0.004035
      dyz     :     0.011882
      dx2y2   :     0.005207
      dxy     :     0.005631
  1 H s       :     0.912407  s :     0.912407
      pz      :     0.005812  p :     0.012264
      px      :     0.003208
      py      :     0.003244
  2 C s       :     3.149726  s :     3.149726
      pz      :     0.915953  p :     2.858062
      px      :     1.004529
      py      :     0.937580
      dz2     :     0.008315  d :     0.035040
      dxz     :     0.003942
      dyz     :     0.011904
      dx2y2   :     0.005204
      dxy     :     0.005675
  3 H s       :     0.912484  s :     0.912484
      pz      :     0.005847  p :     0.012266
      px      :     0.003192
      py      :     0.003227
  4 C s       :     3.253640  s :     3.253640
      pz      :     0.982276  p :     2.962098
      px      :     0.984829
      py      :     0.994992
      dz2     :     0.007421  d :     0.029471
      dxz     :     0.007470
      dyz     :     0.006581
      dx2y2   :     0.006023
      dxy     :     0.001975
  5 H s       :     0.887949  s :     0.887949
      pz      :     0.002078  p :     0.011964
      px      :     0.002740
      py      :     0.007147
  6 H s       :     0.875459  s :     0.875459
      pz      :     0.005475  p :     0.012377
      px      :     0.004087
      py      :     0.002815
  7 C s       :     3.253727  s :     3.253727
      pz      :     0.982631  p :     2.962301
      px      :     0.985815
      py      :     0.993855
      dz2     :     0.007438  d :     0.029467
      dxz     :     0.007548
      dyz     :     0.006525
      dx2y2   :     0.005965
      dxy     :     0.001991
  8 H s       :     0.887908  s :     0.887908
      pz      :     0.002075  p :     0.011963
      px      :     0.002756
      py      :     0.007132
  9 H s       :     0.875337  s :     0.875337
      pz      :     0.005452  p :     0.012373
      px      :     0.004108
      py      :     0.002814
 10 C s       :     3.237675  s :     3.237675
      pz      :     0.984481  p :     2.945212
      px      :     1.001201
      py      :     0.959530
      dz2     :     0.003571  d :     0.028994
      dxz     :     0.003571
      dyz     :     0.009669
      dx2y2   :     0.004897
      dxy     :     0.007286
 11 C s       :     3.237713  s :     3.237713
      pz      :     0.984240  p :     2.944807
      px      :     1.001056
      py      :     0.959512
      dz2     :     0.003634  d :     0.028987
      dxz     :     0.003536
      dyz     :     0.009620
      dx2y2   :     0.004922
      dxy     :     0.007276
 12 H s       :     0.885236  s :     0.885236
      pz      :     0.005508  p :     0.012168
      px      :     0.003188
      py      :     0.003472
 13 H s       :     0.877904  s :     0.877904
      pz      :     0.004312  p :     0.012225
      px      :     0.004442
      py      :     0.003471
 14 H s       :     0.885411  s :     0.885411
      pz      :     0.005542  p :     0.012171
      px      :     0.003153
      py      :     0.003476
 15 H s       :     0.878065  s :     0.878065
      pz      :     0.004285  p :     0.012228
      px      :     0.004490
      py      :     0.003453


                     *******************************
                     * LOEWDIN POPULATION ANALYSIS *
                     *******************************

----------------------
LOEWDIN ATOMIC CHARGES
----------------------
   0 C :   -0.095684
   1 H :    0.068262
   2 C :   -0.095692
   3 H :    0.068236
   4 C :   -0.118139
   5 H :    0.070687
   6 H :    0.073612
   7 C :   -0.118251
   8 H :    0.070711
   9 H :    0.073629
  10 C :   -0.141918
  11 C :   -0.141863
  12 H :    0.070426
  13 H :    0.072824
  14 H :    0.070379
  15 H :    0.072779

-------------------------------
LOEWDIN REDUCED ORBITAL CHARGES
-------------------------------
  0 C s       :     2.900060  s :     2.900060
      pz      :     1.053953  p :     3.109695
      px      :     0.998794
      py      :     1.056949
      dz2     :     0.021586  d :     0.085929
      dxz     :     0.007777
      dyz     :     0.030826
      dx2y2   :     0.013497
      dxy     :     0.012243
  1 H s       :     0.892451  s :     0.892451
      pz      :     0.019525  p :     0.039287
      px      :     0.009666
      py      :     0.010096
  2 C s       :     2.900058  s :     2.900058
      pz      :     1.053844  p :     3.109711
      px      :     0.999011
      py      :     1.056856
      dz2     :     0.021584  d :     0.085923
      dxz     :     0.007569
      dyz     :     0.030897
      dx2y2   :     0.013473
      dxy     :     0.012399
  3 H s       :     0.892477  s :     0.892477
      pz      :     0.019647  p :     0.039287
      px      :     0.009599
      py      :     0.010041
  4 C s       :     2.948486  s :     2.948486
      pz      :     1.058734  p :     3.106552
      px      :     0.987729
      py      :     1.060089
      dz2     :     0.017459  d :     0.063101
      dxz     :     0.014647
      dyz     :     0.016012
      dx2y2   :     0.011430
      dxy     :     0.003553
  5 H s       :     0.888600  s :     0.888600
      pz      :     0.006421  p :     0.040713
      px      :     0.007989
      py      :     0.026303
  6 H s       :     0.884143  s :     0.884143
      pz      :     0.019371  p :     0.042245
      px      :     0.013571
      py      :     0.009303
  7 C s       :     2.948501  s :     2.948501
      pz      :     1.058987  p :     3.106662
      px      :     0.988916
      py      :     1.058759
      dz2     :     0.017525  d :     0.063088
      dxz     :     0.014809
      dyz     :     0.015878
      dx2y2   :     0.011308
      dxy     :     0.003568
  8 H s       :     0.888572  s :     0.888572
      pz      :     0.006402  p :     0.040717
      px      :     0.008051
      py      :     0.026264
  9 H s       :     0.884124  s :     0.884124
      pz      :     0.019277  p :     0.042246
      px      :     0.013701
      py      :     0.009269
 10 C s       :     2.950400  s :     2.950400
      pz      :     1.041504  p :     3.128758
      px      :     1.013430
      py      :     1.073823
      dz2     :     0.008224  d :     0.062760
      dxz     :     0.005637
      dyz     :     0.020660
      dx2y2   :     0.012985
      dxy     :     0.015255
 11 C s       :     2.950418  s :     2.950418
      pz      :     1.041493  p :     3.128691
      px      :     1.013710
      py      :     1.073487
      dz2     :     0.008350  d :     0.062754
      dxz     :     0.005591
      dyz     :     0.020549
      dx2y2   :     0.013041
      dxy     :     0.015222
 12 H s       :     0.888492  s :     0.888492
      pz      :     0.020561  p :     0.041082
      px      :     0.009764
      py      :     0.010757
 13 H s       :     0.885553  s :     0.885553
      pz      :     0.014780  p :     0.041624
      px      :     0.015956
      py      :     0.010888
 14 H s       :     0.888539  s :     0.888539
      pz      :     0.020684  p :     0.041081
      px      :     0.009639
      py      :     0.010759
 15 H s       :     0.885598  s :     0.885598
      pz      :     0.014668  p :     0.041623
      px      :     0.016149
      py      :     0.010806


                      *****************************
                      * MAYER POPULATION ANALYSIS *
                      *****************************

  NA   - Mulliken gross atomic population
  ZA   - Total nuclear charge
  QA   - Mulliken gross atomic charge
  VA   - Mayer's total valence
  BVA  - Mayer's bonded valence
  FA   - Mayer's free valence

  ATOM       NA         ZA         QA         VA         BVA        FA
  0 C      6.0429     6.0000    -0.0429     3.9688     3.9688     0.0000
  1 H      0.9247     1.0000     0.0753     0.9576     0.9576    -0.0000
  2 C      6.0428     6.0000    -0.0428     3.9686     3.9686     0.0000
  3 H      0.9248     1.0000     0.0752     0.9576     0.9576     0.0000
  4 C      6.2452     6.0000    -0.2452     3.9126     3.9126     0.0000
  5 H      0.8999     1.0000     0.1001     0.9584     0.9584     0.0000
  6 H      0.8878     1.0000     0.1122     0.9565     0.9565     0.0000
  7 C      6.2455     6.0000    -0.2455     3.9125     3.9125     0.0000
  8 H      0.8999     1.0000     0.1001     0.9584     0.9584     0.0000
  9 H      0.8877     1.0000     0.1123     0.9564     0.9564    -0.0000
 10 C      6.2119     6.0000    -0.2119     3.9099     3.9099     0.0000
 11 C      6.2115     6.0000    -0.2115     3.9100     3.9100    -0.0000
 12 H      0.8974     1.0000     0.1026     0.9568     0.9568     0.0000
 13 H      0.8901     1.0000     0.1099     0.9608     0.9608    -0.0000
 14 H      0.8976     1.0000     0.1024     0.9569     0.9569    -0.0000
 15 H      0.8903     1.0000     0.1097     0.9608     0.9608    -0.0000

  Mayer bond orders larger than 0.1
B(  0-C ,  1-H ) :   0.9475 B(  0-C ,  2-C ) :   1.3973 B(  0-C ,  7-C ) :   1.5321 
B(  2-C ,  3-H ) :   0.9475 B(  2-C ,  4-C ) :   1.5318 B(  4-C ,  5-H ) :   0.9503 
B(  4-C ,  6-H ) :   0.9427 B(  4-C ,  7-C ) :   0.1156 B(  4-C , 10-C ) :   0.3643 
B(  7-C ,  8-H ) :   0.9503 B(  7-C ,  9-H ) :   0.9427 B(  7-C , 11-C ) :   0.3640 
B( 10-C , 11-C ) :   1.5513 B( 10-C , 12-H ) :   0.9539 B( 10-C , 13-H ) :   0.9580 
B( 11-C , 14-H ) :   0.9539 B( 11-C , 15-H ) :   0.9580 

-------
TIMINGS
-------

Total SCF time: 0 days 0 hours 0 min 9 sec 

Total time                  ....       9.946 sec
Sum of individual times     ....       9.677 sec  ( 97.3%)

Fock matrix formation       ....       8.983 sec  ( 90.3%)
  XC integration            ....       0.762 sec  (  8.5% of F)
    Basis function eval.    ....       0.265 sec  ( 34.7% of XC)
    Density eval.           ....       0.126 sec  ( 16.5% of XC)
    XC-Functional eval.     ....       0.049 sec  (  6.5% of XC)
    XC-Potential eval.      ....       0.176 sec  ( 23.1% of XC)
Diagonalization             ....       0.016 sec  (  0.2%)
Density matrix formation    ....       0.002 sec  (  0.0%)
Population analysis         ....       0.021 sec  (  0.2%)
Initial guess               ....       0.161 sec  (  1.6%)
Orbital Transformation      ....       0.000 sec  (  0.0%)
Orbital Orthonormalization  ....       0.000 sec  (  0.0%)
DIIS solution               ....       0.004 sec  (  0.0%)
SOSCF solution              ....       0.009 sec  (  0.1%)
Grid generation             ....       0.481 sec  (  4.8%)

-------------------------   --------------------
FINAL SINGLE POINT ENERGY      -234.386535718666
-------------------------   --------------------



           ************************************************************
           *        Program running with 4 parallel MPI-processes     *
           *              working on a common directory               *
           ************************************************************
------------------------------------------------------------------------------
                         ORCA SCF GRADIENT CALCULATION
------------------------------------------------------------------------------

Gradient of the Kohn-Sham DFT energy:
Kohn-Sham wavefunction type      ... RKS
Hartree-Fock exchange scaling    ...    0.200
Number of operators              ...    1
Number of atoms                  ...   16
Basis set dimensions             ...  134
Integral neglect threshold       ... 2.5e-11
Integral primitive cutoff        ... 2.5e-12

Nuclear repulsion gradient       ... done
One Electron Gradient            ... done
Pre-screening matrix             ... done
Starting the two electron gradient:
Two electron gradient done
Exchange-correlation gradient    ... done

------------------
CARTESIAN GRADIENT
------------------

   1   C   :   -0.000037983    0.000168389    0.000532928
   2   H   :    0.000098051    0.000130613    0.000284469
   3   C   :   -0.000040690   -0.000163653    0.000507854
   4   H   :    0.000098761   -0.000136372    0.000291746
   5   C   :   -0.000118363   -0.000225534   -0.000590434
   6   H   :    0.000054217   -0.000522804    0.000040105
   7   H   :   -0.000050171    0.000129623   -0.000224971
   8   C   :   -0.000098852    0.000245780   -0.000622337
   9   H   :    0.000074093    0.000502536    0.000036067
  10   H   :   -0.000016343   -0.000131532   -0.000237899
  11   C   :   -0.000235773   -0.000625260   -0.000128805
  12   C   :   -0.000236728    0.000630132   -0.000129724
  13   H   :    0.000009970   -0.000149066   -0.000200896
  14   H   :    0.000248676   -0.000252272    0.000319382
  15   H   :    0.000012363    0.000146328   -0.000199803
  16   H   :    0.000238772    0.000253092    0.000322315

Difference to translation invariance:
           :   -0.0000000000    0.0000000000    0.0000000000

Norm of the cartesian gradient     ...    0.0019705757
RMS gradient                       ...    0.0002844281
MAX gradient                       ...    0.0006301322

-------
TIMINGS
-------

Total SCF gradient time            ...        2.744 sec

One electron gradient       ....       0.025 sec  (  0.9%)
Prescreening matrices       ....       0.019 sec  (  0.7%)
Two electron gradient       ....       1.617 sec  ( 58.9%)
XC gradient                 ....       0.678 sec  ( 24.7%)


           ************************************************************
           *        Program running with 4 parallel MPI-processes     *
           *              working on a common directory               *
           ************************************************************

-------------------------------------------------------------------------------
                               ORCA SCF HESSIAN
-------------------------------------------------------------------------------

Hessian of the Kohn-Sham DFT energy:
Kohn-Sham wavefunction type                      ... RKS
Hartree-Fock exchange scaling                    ...    0.200
Number of operators                              ...    1
Number of atoms                                  ...   16
Basis set dimensions                             ...  134
Integral neglect threshold                       ... 2.5e-11
Integral primitive cutoff                        ... 2.5e-12

Setting up DFT Hessian calculations              ... 
Electron density on the grid                     ... found on disk
Electron density on the final grid               ... found on disk
Building xc-kernel on the grid                   ... done   (      0.0 sec)
Building xc-kernel on the final grid             ... done   (      0.0 sec)
                                                     done   (      0.1 sec)

Nuclear repulsion Hessian                        ... done   (      0.0 sec)

----------------------------------------------
Forming right-hand sides of CP-SCF equations     ...
----------------------------------------------
One electron integral derivatives                ... done   (      0.1 sec)
Transforming the overlap derivative matrices     ... done   (      0.1 sec)
Making the Q(x) pseudodensities                  ... done   (      0.0 sec)
Adding the E*S(x)*S(y) terms to the Hessian      ... done   (      0.0 sec)
Calculating energy weighted overlap derivatives  ... done   (      0.0 sec)
Two electron integral derivatives                ... done   (      2.7 sec)
Exchange-correlation integral derivatives        ... done   (      7.5 sec)
tr(F(y)Q(x)) contribution to the Hessian         ... done   (      0.0 sec)
Response fock operator R(S(x))                   ... done   (      8.0 sec)
XC Response fock operator R(S(x))                ... done   (      4.1 sec)
tr(F(y)S(x)) contribution to the Hessian         ... done   (      0.0 sec)
Transforming and finalizing RHSs                 ... done   (      0.0 sec)

----------------------------------------------
Solving the CP-SCF equations                     ...
----------------------------------------------
     CP-SCF ITERATION   0: 
     CP-SCF ITERATION   1:      0.003967706484
     CP-SCF ITERATION   2:      0.000727638146
     CP-SCF ITERATION   3:      0.000094015741
     CP-SCF ITERATION   4:      0.000012579646
     CP-SCF ITERATION   5:      0.000000697781
     CP-SCF ITERATION   6:      0.000000080782
     CP-SCF ITERATION   7:      0.000000007473

                                                 ... done   (    108.8 sec)
Forming perturbed density Hessian contributions  ... done   (      0.0 sec)
Making the perturbed densities                   ... done   (      0.0 sec)
2nd integral derivative contribs                 ... done   (     14.5 sec)
Exchange-correlation Hessian                     ... done   (      7.0 sec)
Dipol derivatives                                ... done   (      0.5 sec)

Total SCF Hessian time: 0 days 0 hours 2 min 33 sec 

Writing the Hessian file to the disk             ... done


Maximum memory used throughout the entire calculation: 80.9 MB

-----------------------
VIBRATIONAL FREQUENCIES
-----------------------

Scaling factor for frequencies =  1.000000000  (already applied!)

   0:         0.00 cm**-1
   1:         0.00 cm**-1
   2:         0.00 cm**-1
   3:         0.00 cm**-1
   4:         0.00 cm**-1
   5:         0.00 cm**-1
   6:      -529.16 cm**-1 ***imaginary mode***
   7:       130.56 cm**-1
   8:       200.37 cm**-1
   9:       281.60 cm**-1
  10:       371.69 cm**-1
  11:       405.10 cm**-1
  12:       489.20 cm**-1
  13:       587.51 cm**-1
  14:       621.49 cm**-1
  15:       693.12 cm**-1
  16:       779.15 cm**-1
  17:       810.85 cm**-1
  18:       850.04 cm**-1
  19:       907.55 cm**-1
  20:       944.23 cm**-1
  21:       967.16 cm**-1
  22:       980.77 cm**-1
  23:       987.53 cm**-1
  24:      1004.83 cm**-1
  25:      1011.11 cm**-1
  26:      1105.31 cm**-1
  27:      1106.78 cm**-1
  28:      1245.78 cm**-1
  29:      1253.19 cm**-1
  30:      1272.28 cm**-1
  31:      1318.17 cm**-1
  32:      1440.49 cm**-1
  33:      1479.04 cm**-1
  34:      1503.32 cm**-1
  35:      1555.06 cm**-1
  36:      1605.03 cm**-1
  37:      1606.92 cm**-1
  38:      3153.47 cm**-1
  39:      3159.73 cm**-1
  40:      3160.93 cm**-1
  41:      3167.33 cm**-1
  42:      3171.83 cm**-1
  43:      3176.93 cm**-1
  44:      3240.37 cm**-1
  45:      3245.68 cm**-1
  46:      3248.38 cm**-1
  47:      3264.82 cm**-1


------------
NORMAL MODES
------------

These modes are the Cartesian displacements weighted by the diagonal matrix
M(i,i)=1/sqrt(m[i]) where m[i] is the mass of the displaced atom
Thus, these vectors are normalized but *not* orthogonal

                  0          1          2          3          4          5    
      0       0.000000   0.000000   0.000000   0.000000   0.000000   0.000000
      1       0.000000   0.000000   0.000000   0.000000   0.000000   0.000000
      2       0.000000   0.000000   0.000000   0.000000   0.000000   0.000000
      3       0.000000   0.000000   0.000000   0.000000   0.000000   0.000000
      4       0.000000   0.000000   0.000000   0.000000   0.000000   0.000000
      5       0.000000   0.000000   0.000000   0.000000   0.000000   0.000000
      6       0.000000   0.000000   0.000000   0.000000   0.000000   0.000000
      7       0.000000   0.000000   0.000000   0.000000   0.000000   0.000000
      8       0.000000   0.000000   0.000000   0.000000   0.000000   0.000000
      9       0.000000   0.000000   0.000000   0.000000   0.000000   0.000000
     10       0.000000   0.000000   0.000000   0.000000   0.000000   0.000000
     11       0.000000   0.000000   0.000000   0.000000   0.000000   0.000000
     12       0.000000   0.000000   0.000000   0.000000   0.000000   0.000000
     13       0.000000   0.000000   0.000000   0.000000   0.000000   0.000000
     14       0.000000   0.000000   0.000000   0.000000   0.000000   0.000000
     15       0.000000   0.000000   0.000000   0.000000   0.000000   0.000000
     16       0.000000   0.000000   0.000000   0.000000   0.000000   0.000000
     17       0.000000   0.000000   0.000000   0.000000   0.000000   0.000000
     18       0.000000   0.000000   0.000000   0.000000   0.000000   0.000000
     19       0.000000   0.000000   0.000000   0.000000   0.000000   0.000000
     20       0.000000   0.000000   0.000000   0.000000   0.000000   0.000000
     21       0.000000   0.000000   0.000000   0.000000   0.000000   0.000000
     22       0.000000   0.000000   0.000000   0.000000   0.000000   0.000000
     23       0.000000   0.000000   0.000000   0.000000   0.000000   0.000000
     24       0.000000   0.000000   0.000000   0.000000   0.000000   0.000000
     25       0.000000   0.000000   0.000000   0.000000   0.000000   0.000000
     26       0.000000   0.000000   0.000000   0.000000   0.000000   0.000000
     27       0.000000   0.000000   0.000000   0.000000   0.000000   0.000000
     28       0.000000   0.000000   0.000000   0.000000   0.000000   0.000000
     29       0.000000   0.000000   0.000000   0.000000   0.000000   0.000000
     30       0.000000   0.000000   0.000000   0.000000   0.000000   0.000000
     31       0.000000   0.000000   0.000000   0.000000   0.000000   0.000000
     32       0.000000   0.000000   0.000000   0.000000   0.000000   0.000000
     33       0.000000   0.000000   0.000000   0.000000   0.000000   0.000000
     34       0.000000   0.000000   0.000000   0.000000   0.000000   0.000000
     35       0.000000   0.000000   0.000000   0.000000   0.000000   0.000000
     36       0.000000   0.000000   0.000000   0.000000   0.000000   0.000000
     37       0.000000   0.000000   0.000000   0.000000   0.000000   0.000000
     38       0.000000   0.000000   0.000000   0.000000   0.000000   0.000000
     39       0.000000   0.000000   0.000000   0.000000   0.000000   0.000000
     40       0.000000   0.000000   0.000000   0.000000   0.000000   0.000000
     41       0.000000   0.000000   0.000000   0.000000   0.000000   0.000000
     42       0.000000   0.000000   0.000000   0.000000   0.000000   0.000000
     43       0.000000   0.000000   0.000000   0.000000   0.000000   0.000000
     44       0.000000   0.000000   0.000000   0.000000   0.000000   0.000000
     45       0.000000   0.000000   0.000000   0.000000   0.000000   0.000000
     46       0.000000   0.000000   0.000000   0.000000   0.000000   0.000000
     47       0.000000   0.000000   0.000000   0.000000   0.000000   0.000000
                  6          7          8          9         10         11    
      0       0.021882   0.016577   0.107258   0.167133   0.020909   0.053252
      1      -0.068325  -0.018014  -0.049374  -0.001564   0.001258   0.056090
      2       0.010251   0.044488  -0.037639  -0.065102  -0.110869   0.017174
      3      -0.133318   0.040388   0.228536   0.398911   0.147615   0.215214
      4       0.011038  -0.085858  -0.043076   0.024566  -0.119411   0.020873
      5       0.014191   0.075230  -0.080271  -0.153453  -0.080600  -0.013037
      6       0.023157  -0.016864  -0.108039   0.167141   0.021123  -0.052171
      7       0.068010  -0.018055  -0.047136  -0.001933  -0.002592   0.056896
      8       0.009671  -0.044315   0.037906  -0.065048  -0.110952  -0.018073
      9      -0.133296  -0.041947  -0.229114   0.398420   0.150915  -0.214533
     10      -0.008532  -0.085778  -0.038304  -0.032859   0.116031   0.025260
     11       0.014146  -0.074573   0.080468  -0.153149  -0.081856   0.012573
     12       0.304892   0.018274  -0.218313  -0.154046   0.011627   0.048671
     13       0.113499   0.063856  -0.116506   0.045135  -0.220964   0.042225
     14      -0.215613  -0.103268   0.103914  -0.063249   0.031645  -0.019686
     15       0.193863  -0.038550  -0.308449  -0.240400   0.222444  -0.129665
     16       0.097878   0.055851  -0.123540   0.035039  -0.195734   0.026445
     17      -0.146646  -0.161491   0.147755  -0.145111   0.246780   0.048290
     18      -0.225430   0.040607  -0.003639  -0.207648  -0.057249   0.283071
     19      -0.038256   0.129901  -0.059761   0.150098  -0.471013   0.089408
     20       0.053393  -0.090203  -0.009241   0.017209  -0.036223  -0.148813
     21       0.302671  -0.017155   0.216173  -0.154906   0.015753  -0.047772
     22      -0.120632   0.064814  -0.121124  -0.042833   0.220890   0.044099
     23      -0.214660   0.102730  -0.103046  -0.062901   0.030098   0.019439
     24       0.192008   0.039309   0.306266  -0.241025   0.225099   0.130669
     25      -0.102480   0.056254  -0.130146  -0.031803   0.193608   0.024499
     26      -0.146016   0.160823  -0.146799  -0.144788   0.245352  -0.047657
     27      -0.224472  -0.038240   0.002529  -0.210554  -0.047206  -0.281459
     28       0.042403   0.130847  -0.059555  -0.146048   0.470858   0.097141
     29       0.053038   0.089234   0.009621   0.018423  -0.040334   0.147975
     30      -0.330179   0.070600   0.141588  -0.007779  -0.054891   0.204421
     31      -0.100624  -0.046720   0.158998   0.002550   0.002678  -0.103778
     32       0.222191   0.168439   0.024425   0.124759   0.059519  -0.149142
     33      -0.328146  -0.071425  -0.138797  -0.007740  -0.054350  -0.206444
     34       0.108277  -0.046823   0.161299  -0.001482  -0.001021  -0.098850
     35       0.221341  -0.168062  -0.025519   0.124888   0.058972   0.150232
     36       0.102830   0.236590   0.191746   0.118002  -0.011581   0.237250
     37       0.046525  -0.293712   0.018395  -0.003245   0.007632  -0.038641
     38      -0.032208   0.259373   0.096405   0.082046   0.041470  -0.202305
     39       0.097373   0.105203   0.097874  -0.125482  -0.072391   0.287417
     40       0.037188   0.198095   0.289842  -0.003196   0.008011  -0.089817
     41      -0.086934   0.339329   0.174370   0.237880   0.080476  -0.217959
     42       0.101700  -0.241622  -0.191305   0.118248  -0.011283  -0.238563
     43      -0.048519  -0.291565   0.021040   0.001868  -0.007235  -0.032815
     44      -0.031680  -0.257047  -0.096397   0.082155   0.040801   0.202981
     45       0.096942  -0.101821  -0.092887  -0.125277  -0.071768  -0.288880
     46      -0.039700   0.197185   0.290068   0.007101  -0.005719  -0.082826
     47      -0.086683  -0.340818  -0.176377   0.238065   0.079671   0.218602
                 12         13         14         15         16         17    
      0       0.200493   0.023724   0.001968  -0.074935   0.119416  -0.004256
      1      -0.006541   0.110288   0.000244   0.001094  -0.028601  -0.027149
      2      -0.024582   0.148341  -0.024205   0.026345  -0.060687   0.025298
      3       0.511721  -0.053271   0.030768   0.458766  -0.175965  -0.028844
      4      -0.047368   0.015076  -0.005775  -0.052438   0.020916  -0.019534
      5      -0.099002   0.221237  -0.030670  -0.108755   0.002425   0.030062
      6      -0.200590  -0.021765   0.002034  -0.075010  -0.119845  -0.004144
      7      -0.002735   0.109572  -0.000330   0.000403  -0.026094   0.027303
      8       0.024529  -0.148999  -0.024445   0.026418   0.060772   0.025345
      9      -0.512431   0.053555   0.031153   0.459883   0.176205  -0.027753
     10      -0.037304   0.012275   0.004968   0.043379   0.017589   0.020366
     11       0.099251  -0.221259  -0.031095  -0.109065  -0.002654   0.029943
     12       0.121744  -0.033395  -0.013335  -0.007927  -0.018232  -0.021085
     13      -0.019360  -0.066787  -0.003523   0.045572   0.042843  -0.012714
     14      -0.008483  -0.062034  -0.010008  -0.008363  -0.001494  -0.014940
     15       0.035302   0.184163  -0.056268   0.420505   0.505942  -0.221641
     16      -0.029234  -0.037380  -0.007943   0.089314   0.094315  -0.032136
     17       0.103898   0.301840  -0.018999  -0.077775  -0.144782   0.178619
     18       0.304238  -0.126776   0.014840  -0.236868  -0.336661  -0.346559
     19      -0.093414  -0.474700   0.024483  -0.113333  -0.123023  -0.145390
     20      -0.155896  -0.184661  -0.016356   0.067956   0.126832   0.130045
     21      -0.122057   0.032132  -0.013159  -0.008736   0.019079  -0.020749
     22      -0.016954  -0.067128   0.003556  -0.045407   0.042339   0.013135
     23       0.008683   0.062516  -0.009959  -0.008025   0.001227  -0.015046
     24      -0.035605  -0.184782  -0.056377   0.418726  -0.503548  -0.222666
     25      -0.029285  -0.036589   0.008738  -0.097451   0.104367   0.037897
     26      -0.103539  -0.301502  -0.019427  -0.076977   0.143362   0.178919
     27      -0.306167   0.117910   0.014404  -0.234798   0.336228  -0.342987
     28      -0.086393  -0.475452  -0.025486   0.118224  -0.130831   0.152327
     29       0.156760   0.188369  -0.015806   0.067028  -0.126620   0.128553
     30      -0.094607  -0.000893   0.022494   0.028290   0.030940   0.030396
     31       0.031918  -0.000903   0.002984   0.003231  -0.015237  -0.043303
     32       0.041183   0.001371   0.050289  -0.008646  -0.021896  -0.002549
     33       0.095151   0.000932   0.022507   0.028141  -0.031322   0.030986
     34       0.029886  -0.000925  -0.002944  -0.003837  -0.014694   0.042692
     35      -0.041398  -0.001553   0.050208  -0.008576   0.022068  -0.002761
     36      -0.103949   0.032671  -0.467848  -0.012085   0.103058   0.276488
     37       0.063424  -0.006533   0.062099  -0.006827  -0.012049   0.130473
     38       0.025180  -0.006909   0.199004   0.012274  -0.052098  -0.207144
     39      -0.064392  -0.018700   0.344329   0.025374   0.035420   0.253096
     40       0.003050   0.003700  -0.064535  -0.002486   0.015419  -0.050159
     41      -0.013657   0.023256  -0.322607  -0.007568   0.002919  -0.222561
     42       0.104943  -0.031474  -0.468965  -0.012046  -0.104760   0.273822
     43       0.061378  -0.005750  -0.052097   0.007096  -0.009603  -0.137214
     44      -0.025598   0.006404   0.199523   0.012260   0.053003  -0.206014
     45       0.064746   0.017965   0.345750   0.025380  -0.036354   0.254203
     46       0.001929   0.003043   0.055708   0.001943   0.016276   0.043811
     47       0.013422  -0.022499  -0.323439  -0.007609  -0.002278  -0.223300
                 18         19         20         21         22         23    
      0      -0.001421   0.015797   0.055690  -0.044693  -0.065582  -0.004137
      1      -0.006728  -0.003352  -0.053637  -0.046753   0.010659  -0.005292
      2       0.000281  -0.011623  -0.024456  -0.032779   0.000027  -0.005808
      3       0.001137  -0.048707  -0.350309   0.315316   0.286555   0.091710
      4      -0.006987   0.031323   0.109073  -0.066672  -0.033885   0.007270
      5      -0.000326  -0.010936   0.005790  -0.138087  -0.082099  -0.042861
      6      -0.001349  -0.015829   0.056938  -0.044171   0.065384   0.003973
      7       0.006731  -0.002839   0.052382   0.047279   0.009558  -0.005261
      8       0.000282   0.011656  -0.024848  -0.033189  -0.000218   0.005847
      9       0.001503   0.049211  -0.353944   0.318210  -0.285450  -0.090296
     10       0.006985   0.030387  -0.103083   0.060073  -0.027288   0.009026
     11      -0.000387   0.010574   0.007004  -0.139117   0.081996   0.042219
     12      -0.002068   0.031135  -0.039218   0.048054  -0.061431   0.046621
     13      -0.001892  -0.000538   0.087336   0.063980  -0.003919   0.008300
     14      -0.004441  -0.019401  -0.002348   0.018583   0.021390  -0.014620
     15      -0.066581  -0.299635   0.276828  -0.345523   0.317879  -0.161555
     16      -0.008206  -0.034648   0.129362   0.033802   0.035321  -0.013370
     17       0.042557   0.121004   0.325485   0.421644  -0.123829   0.092452
     18      -0.073504  -0.263115  -0.158470   0.182576   0.182965  -0.184816
     19      -0.024130  -0.053051  -0.277919  -0.067272   0.018454  -0.043226
     20       0.029313   0.139457  -0.082126  -0.119741  -0.120928   0.108720
     21      -0.001998  -0.031196  -0.040720   0.046735   0.062054  -0.046678
     22       0.001929  -0.000027  -0.086515  -0.064728  -0.005238   0.009104
     23      -0.004464   0.019362  -0.001697   0.019091  -0.021452   0.014730
     24      -0.066796   0.298603   0.273729  -0.345062  -0.320478   0.161482
     25       0.009827  -0.041198  -0.131651  -0.024438   0.042496  -0.017250
     26       0.042619  -0.119708   0.326478   0.421667   0.124877  -0.091674
     27      -0.073034   0.261831  -0.153318   0.183410  -0.184170   0.186700
     28       0.025653  -0.058184   0.280016   0.063326   0.022592  -0.047491
     29       0.029142  -0.139273  -0.084300  -0.120250   0.122133  -0.110044
     30      -0.010922  -0.055435   0.022080  -0.004185  -0.062284   0.004773
     31      -0.008249  -0.010402   0.006545   0.003210  -0.018604   0.007409
     32      -0.026628   0.038461  -0.006448  -0.005080   0.007954  -0.062904
     33      -0.010785   0.055344   0.021848  -0.004540   0.062223  -0.004883
     34       0.008206  -0.011653  -0.006991  -0.003080  -0.019786   0.008005
     35      -0.026652  -0.038403  -0.006283  -0.005110  -0.007983   0.062937
     36       0.060874   0.317728  -0.135067  -0.048229   0.414419   0.261887
     37      -0.429672   0.109794  -0.038246  -0.005828   0.056549  -0.068306
     38       0.210973  -0.179477   0.082348   0.017880  -0.219825  -0.109746
     39       0.247882   0.302477  -0.089875  -0.091082   0.007383  -0.432853
     40       0.429261   0.117349  -0.043386  -0.032240   0.072061  -0.008799
     41       0.084726  -0.206663   0.062874   0.048949   0.016689   0.356213
     42       0.068090  -0.315920  -0.134211  -0.045313  -0.414982  -0.261797
     43       0.430223   0.116990   0.041050   0.006515   0.066084  -0.063385
     44       0.207696   0.178750   0.081907   0.016396   0.220197   0.109448
[...]
     12      -0.027971   0.014259   0.013365  -0.000205  -0.012437  -0.019719
     13       0.002802   0.002277   0.002921  -0.000681   0.002850  -0.048765
     14      -0.101607   0.084317   0.020557   0.001608  -0.053947  -0.045464
     15      -0.065272   0.083267  -0.189682   0.001571   0.166308   0.134510
     16      -0.008971   0.019029  -0.044258  -0.001037   0.044379  -0.021313
     17       0.004988   0.030393  -0.409618  -0.004768   0.472779   0.210374
     18       0.041600  -0.024095  -0.021899  -0.003894  -0.004258   0.053191
     19      -0.273692   0.232744  -0.366605   0.001667   0.318950   0.301785
     20      -0.277836   0.218142  -0.140320   0.004512   0.091800   0.066952
     21       0.027951   0.014186  -0.013291   0.000191  -0.012483  -0.018842
     22       0.003116  -0.001886   0.002974  -0.000698  -0.003086   0.048787
     23       0.101545   0.084339  -0.020536  -0.001616  -0.053912  -0.045902
     24       0.065172   0.082984   0.188579  -0.001572   0.165507   0.134982
     25      -0.010169  -0.020312  -0.044418  -0.000977  -0.043711   0.020548
     26      -0.005085   0.030472   0.409603   0.004834   0.473494   0.210494
     27      -0.046456  -0.028235   0.015258   0.003940  -0.009920   0.047812
     28      -0.270532  -0.230537  -0.365418   0.001530  -0.318355  -0.302474
     29       0.279739   0.219915   0.143086  -0.004528   0.094415   0.069459
     30      -0.011926  -0.009075   0.001950  -0.008682  -0.012091   0.019663
     31       0.003827  -0.089772   0.000368   0.066398   0.013223  -0.105168
     32      -0.027376   0.005199  -0.002955   0.007801   0.008837  -0.013257
     33       0.012006  -0.007460  -0.001939   0.009865  -0.012335   0.021555
     34       0.004058   0.089978   0.000427   0.066120  -0.012936   0.104701
     35       0.027330   0.004531   0.002947  -0.008309   0.008946  -0.014068
     36      -0.050710   0.099445  -0.007723   0.249387   0.079899  -0.237763
     37      -0.124141  -0.203195  -0.002218  -0.385621  -0.093152   0.276159
     38       0.067194   0.020016   0.002338   0.175176   0.036838  -0.150696
     39       0.037140   0.007908  -0.005028  -0.069789   0.005271   0.043668
     40       0.094593  -0.209400   0.006139  -0.400743  -0.093439   0.277723
     41      -0.000644  -0.090364   0.007591  -0.297129  -0.092226   0.276018
     42       0.048643   0.103116   0.007662  -0.256251   0.081637  -0.242758
     43      -0.125060   0.201401  -0.002414  -0.382414   0.092062  -0.273043
     44      -0.066179   0.018381  -0.002338  -0.172193   0.036151  -0.148592
     45      -0.035557   0.011628   0.005123   0.062623   0.006934   0.038695
     46       0.095787   0.208545   0.005955  -0.399608   0.092689  -0.276343
     47      -0.000191  -0.091932  -0.007600   0.300181  -0.093002   0.278223
                 36         37         38         39         40         41    
      0      -0.005100  -0.014516   0.013581   0.004613   0.006080   0.004653
      1      -0.176980   0.101333   0.024629   0.007332   0.012959   0.005765
      2       0.076644  -0.156042   0.044509   0.015888   0.018190   0.019002
      3       0.024570  -0.026637  -0.164748  -0.054474  -0.073046  -0.056293
      4       0.158694  -0.377091  -0.297035  -0.096394  -0.133195  -0.098412
      5      -0.119438   0.097858  -0.535059  -0.176095  -0.236204  -0.183602
      6      -0.002164   0.016343  -0.013368  -0.002832   0.006415  -0.004892
      7       0.175867   0.105206   0.024985   0.003697  -0.013677   0.006409
      8       0.072575   0.156486  -0.045430  -0.010761   0.020371  -0.020191
      9       0.021404   0.020213   0.162169   0.032859  -0.077125   0.058626
     10      -0.153483  -0.380799  -0.300693  -0.058681   0.144060  -0.105537
     11      -0.116506  -0.096742   0.546315   0.110027  -0.258688   0.197984
     12      -0.013613  -0.019176  -0.002281   0.006078   0.009614   0.011165
     13      -0.087517  -0.099245  -0.017915   0.013195   0.031953   0.031185
     14      -0.082441  -0.138598  -0.007077   0.013603   0.022490   0.026786
     15       0.116339   0.159524  -0.030936   0.026104   0.057915   0.056842
     16      -0.069498  -0.080026   0.263013  -0.209091  -0.493699  -0.482061
     17       0.171074   0.323504  -0.010604   0.008187   0.020183   0.019991
     18       0.025491  -0.007909   0.058757  -0.095858  -0.170647  -0.184995
     19       0.348664   0.380929  -0.046451   0.071537   0.129797   0.140484
     20       0.083667   0.057187   0.092186  -0.150702  -0.269989  -0.294709
     21      -0.012312   0.017155   0.001758  -0.003155   0.010052  -0.010747
     22       0.088779  -0.097027  -0.017098   0.003994  -0.033922   0.031852
     23      -0.085520   0.137989   0.006715  -0.006994   0.025098  -0.027448
     24       0.120345  -0.158930   0.034043  -0.010544   0.071570  -0.066996
     25       0.070084  -0.078518   0.250337  -0.066535   0.524433  -0.491639
     26       0.176240  -0.320278   0.008128  -0.001863   0.017243  -0.016575
     27       0.018976   0.015104  -0.055618   0.046319  -0.189374   0.190729
     28      -0.355067   0.374683  -0.043176   0.033216  -0.140825   0.141983
     29       0.087540  -0.058884  -0.085732   0.071207  -0.294429   0.298869
     30      -0.001211   0.003038  -0.000910   0.006323  -0.000334  -0.003189
     31       0.148910   0.002692   0.005165  -0.038358  -0.000811   0.014461
     32       0.000786  -0.002378   0.002244  -0.014726  -0.000104   0.004602
     33      -0.003822  -0.003033   0.000994  -0.006815   0.001724   0.003391
     34      -0.148896   0.000484   0.005039  -0.036416   0.011738   0.014062
     35       0.001887   0.002375  -0.002250   0.014415  -0.004411  -0.004614
     36       0.157079  -0.013989  -0.022850   0.166635  -0.001220  -0.061020
     37      -0.213841  -0.002333  -0.035915   0.256828  -0.001330  -0.093695
     38       0.175512   0.008321  -0.059754   0.428408  -0.004835  -0.158597
     39      -0.096603  -0.009420   0.032492  -0.240353   0.003522   0.097593
     40      -0.218701  -0.000292  -0.025499   0.193140  -0.002407  -0.078829
     41      -0.219520   0.005747   0.033444  -0.252752   0.003716   0.102191
     42       0.160692   0.016315   0.021886  -0.156021   0.045372   0.058272
     43       0.212456   0.000505  -0.035345   0.246834  -0.072400  -0.091830
     44       0.174037  -0.005666   0.059229  -0.414936   0.119017   0.156494
     45      -0.092863   0.007981  -0.032500   0.235134  -0.066745  -0.097286
     46       0.218746   0.002746  -0.024815   0.183891  -0.052625  -0.076521
     47      -0.221142  -0.009045  -0.032793   0.242383  -0.068749  -0.099868
                 42         43         44         45         46         47    
      0       0.002052   0.013823   0.000765  -0.001835  -0.001505   0.000111
      1       0.002920   0.027006   0.001046  -0.003375  -0.003299   0.000309
      2       0.006631   0.047450   0.001938  -0.005940  -0.004881   0.000369
      3      -0.023393  -0.164687  -0.006596   0.018893   0.018570  -0.001885
      4      -0.040662  -0.297039  -0.011248   0.033906   0.031734  -0.003288
      5      -0.072261  -0.529206  -0.020345   0.062084   0.057900  -0.006535
      6       0.001987   0.013200  -0.000771  -0.001887   0.001288   0.000103
      7      -0.002873  -0.026647   0.001092   0.003628  -0.002984  -0.000303
      8       0.006616   0.047121  -0.002030  -0.006353   0.004374   0.000363
      9      -0.022511  -0.157705   0.006658   0.019738  -0.016366  -0.001795
     10       0.040193   0.292598  -0.011682  -0.036284   0.028580   0.003216
     11      -0.072028  -0.525692   0.021317   0.067012  -0.052556  -0.006459
     12       0.000762  -0.008314  -0.009189  -0.028220   0.025056   0.003098
     13       0.004246  -0.011901   0.017419   0.053027  -0.045020  -0.005720
     14      -0.000474  -0.018260  -0.012426  -0.038295   0.034879   0.004544
     15       0.005229  -0.024047   0.014923   0.045372  -0.035897  -0.004323
     16      -0.059850   0.201902  -0.143722  -0.433689   0.361647   0.044971
     17       0.003173  -0.006477   0.002122   0.007415  -0.004363  -0.000747
     18      -0.007059   0.119366   0.090782   0.288036  -0.257785  -0.036204
     19       0.004969  -0.089037  -0.063699  -0.198333   0.180761   0.023636
     20      -0.009588   0.189164   0.145037   0.455919  -0.408122  -0.054157
     21       0.000716  -0.008246   0.009123  -0.026887  -0.028317   0.003254
     22      -0.004349   0.012286   0.016681  -0.048905  -0.049323   0.005796
     23      -0.000365  -0.018738   0.011804  -0.034841  -0.037727   0.004572
     24       0.006504  -0.028521  -0.016855   0.049544   0.046981  -0.005233
     25       0.061155  -0.207474  -0.138021   0.401563   0.397850  -0.045687
     26       0.002751  -0.005089  -0.000945   0.003882   0.001871  -0.000397
     27      -0.007689   0.123481  -0.088103   0.268335   0.285422  -0.037150
     28      -0.005323   0.090298  -0.060679   0.180904   0.195946  -0.023788
     29      -0.010406   0.192592  -0.138701   0.418555   0.445124  -0.054844
     30      -0.008654   0.001258   0.037155   0.004293   0.012631   0.039002
     31       0.046925  -0.003475  -0.006045  -0.001886  -0.000907  -0.005329
     32       0.014387  -0.000947   0.054016   0.005434   0.019427   0.057883
     33      -0.009484   0.001345  -0.037210   0.005908  -0.012124   0.039099
     34      -0.046653   0.003513  -0.005785   0.001991  -0.000665   0.005085
     35       0.014762  -0.000987  -0.053908   0.007815  -0.018726   0.057851
     36      -0.169695   0.012512  -0.117673  -0.007655  -0.046791  -0.132308
     37      -0.264950   0.020024  -0.201518  -0.014596  -0.077305  -0.222737
     38      -0.441956   0.034351  -0.319292  -0.022653  -0.123868  -0.352071
     39       0.265123  -0.023817  -0.323122  -0.037791  -0.107973  -0.328321
     40      -0.213697   0.019089   0.272134   0.033858   0.089287   0.277561
     41       0.275474  -0.023722  -0.328719  -0.040503  -0.107643  -0.334722
     42      -0.164965   0.012419   0.113930  -0.012854   0.044233  -0.128283
     43       0.264606  -0.020397  -0.200914   0.023936  -0.075004   0.222335
     44      -0.444117   0.035235   0.320507  -0.037860   0.121033  -0.353770
     45       0.268834  -0.024703   0.327569  -0.052174   0.105001  -0.333349
     46       0.210994  -0.019276   0.268519  -0.044634   0.084263  -0.274310
     47       0.273777  -0.024133   0.326242  -0.053772   0.102249  -0.332701


-----------
IR SPECTRUM
-----------

 Mode    freq (cm**-1)   T**2         TX         TY         TZ
-------------------------------------------------------------------
   7:       136.26    0.839316  ( -0.007770  -0.916103   0.003228)
   8:       201.56    1.089106  (  0.008748   1.043557  -0.004146)
   9:       283.49    0.371327  ( -0.575446   0.004100   0.200429)
  10:       372.67    0.097081  (  0.218181  -0.008198  -0.222286)
  11:       406.57    2.491270  (  0.013200   1.578306  -0.006727)
  12:       490.79    0.542428  (  0.004937   0.736475  -0.002999)
  13:       588.99    0.013220  ( -0.000808  -0.114976   0.000244)
  14:       624.20    1.497618  ( -1.202885   0.008711  -0.224967)
  15:       695.75   22.173453  (  4.314314  -0.047720  -1.886231)
  16:       780.97    0.572973  ( -0.002025   0.756945   0.001539)
  17:       811.39    0.229843  ( -0.434375   0.008336  -0.202711)
  18:       851.70    0.278752  ( -0.259084   0.005694   0.459994)
  19:       908.85   13.276675  (  0.034937   3.643524  -0.013726)
  20:       945.32   17.450904  ( -3.467015   0.038440   2.330072)
  21:       968.21    0.467670  (  0.678978   0.003166  -0.081543)
  22:       981.58    1.611634  ( -0.002501  -1.269495   0.003403)
  23:       989.23    2.214800  (  0.000908   1.488218   0.002689)
  24:      1005.89   28.104787  (  4.871962  -0.029655  -2.089951)
  25:      1012.07    6.205824  (  0.015291  -2.491098  -0.004461)
  26:      1104.47    1.602344  (  0.334990  -0.012570  -1.220642)
  27:      1107.03    0.448140  (  0.009581   0.669228  -0.013472)
  28:      1246.23    0.054479  (  0.003124   0.233385  -0.000402)
  29:      1250.80    0.124547  ( -0.350427   0.004605   0.041549)
  30:      1271.59    0.282908  (  0.004111   0.531872  -0.001708)
  31:      1316.78    1.539705  ( -0.685509   0.008486   1.034268)
  32:      1440.60    0.886011  ( -0.008258  -0.941238   0.003566)
  33:      1479.60    1.128209  ( -0.007574  -1.062138   0.003803)
  34:      1502.67    7.163829  (  0.057320   0.008686   2.675905)
  35:      1554.21    2.696555  (  1.639636  -0.013172   0.089310)
  36:      1602.55    1.334699  (  0.812333   0.000747   0.821470)
  37:      1604.97    0.575156  ( -0.000732  -0.758332   0.009380)
  38:      3148.92    2.547253  ( -0.005342   1.594592  -0.067082)
  39:      3155.66    2.154774  (  0.231133  -1.350537   0.526690)
  40:      3155.79   17.488351  (  1.755260   0.276564   3.785621)
  41:      3162.33   26.009369  (  0.024835   5.098978  -0.095775)
  42:      3167.63    6.015498  ( -0.865682   0.012360   2.294764)
  43:      3172.60   13.705299  ( -0.324348   0.052202   3.687462)
  44:      3235.53    0.799639  ( -0.006031   0.893986  -0.019808)
  45:      3241.58    7.568560  ( -1.683282   0.165604  -2.169722)
  46:      3244.36   13.629031  ( -0.105309  -3.689440  -0.077296)
  47:      3259.95   20.082885  (  2.729678  -0.007820   3.554108)

The first frequency considered to be a vibration is 7
The total number of vibrations considered is 41


--------------------------
THERMOCHEMISTRY AT 298.15K
--------------------------

Temperature         ... 298.15 K
Pressure            ... 1.00 atm
Total Mass          ... 82.15 AMU

Throughout the following assumptions are being made:
  (1) The electronic state is orbitally nondegenerate
  (2) There are no thermally accessible electronically excited states
  (3) Hindered rotations indicated by low frequency modes are not
      treated as such but are treated as vibrations and this may
      cause some error
  (4) All equations used are the standard statistical mechanics
      equations for an ideal gas
  (5) All vibrations are strictly harmonic

freq.     136.26  E(vib)   ...       0.42 
freq.     201.56  E(vib)   ...       0.35 
freq.     283.49  E(vib)   ...       0.28 
freq.     372.67  E(vib)   ...       0.21 
freq.     406.57  E(vib)   ...       0.19 
freq.     490.79  E(vib)   ...       0.14 
freq.     588.99  E(vib)   ...       0.10 
freq.     624.20  E(vib)   ...       0.09 
freq.     695.75  E(vib)   ...       0.07 
freq.     780.97  E(vib)   ...       0.05 
freq.     811.39  E(vib)   ...       0.05 
freq.     851.70  E(vib)   ...       0.04 
freq.     908.85  E(vib)   ...       0.03 
freq.     945.32  E(vib)   ...       0.03 
freq.     968.21  E(vib)   ...       0.03 
freq.     981.58  E(vib)   ...       0.02 
freq.     989.23  E(vib)   ...       0.02 
freq.    1005.89  E(vib)   ...       0.02 
freq.    1012.07  E(vib)   ...       0.02 
freq.    1104.47  E(vib)   ...       0.02 
freq.    1107.03  E(vib)   ...       0.02 
freq.    1246.23  E(vib)   ...       0.01 
freq.    1250.80  E(vib)   ...       0.01 
freq.    1271.59  E(vib)   ...       0.01 
freq.    1316.78  E(vib)   ...       0.01 
freq.    1440.60  E(vib)   ...       0.00 
freq.    1479.60  E(vib)   ...       0.00 
freq.    1502.67  E(vib)   ...       0.00 
freq.    1554.21  E(vib)   ...       0.00 
freq.    1602.55  E(vib)   ...       0.00 
freq.    1604.97  E(vib)   ...       0.00 
freq.    3148.92  E(vib)   ...       0.00 
freq.    3155.66  E(vib)   ...       0.00 
freq.    3155.79  E(vib)   ...       0.00 
freq.    3162.33  E(vib)   ...       0.00 
freq.    3167.63  E(vib)   ...       0.00 
freq.    3172.60  E(vib)   ...       0.00 
freq.    3235.53  E(vib)   ...       0.00 
freq.    3241.58  E(vib)   ...       0.00 
freq.    3244.36  E(vib)   ...       0.00 
freq.    3259.95  E(vib)   ...       0.00 

------------
INNER ENERGY
------------

The inner energy is: U= E(el) + E(ZPE) + E(vib) + E(rot) + E(trans)
    E(el)   - is the total energy from the electronic structure calculation
              = E(kin-el) + E(nuc-el) + E(el-el) + E(nuc-nuc)
    E(ZPE)  - the the zero temperature vibrational energy from the frequency calculation
    E(vib)  - the the finite temperature correction to E(ZPE) due to population
              of excited vibrational states
    E(rot)  - is the rotational thermal energy
    E(trans)- is the translational thermal energy

Summary of contributions to the inner energy U:
Electronic energy                ...   -234.38653815 Eh
Zero point energy                ...      0.14006479 Eh      87.89 kcal/mol
Thermal vibrational correction   ...      0.00360440 Eh       2.26 kcal/mol
Thermal rotational correction    ...      0.00141627 Eh       0.89 kcal/mol
Thermal translational correction ...      0.00141627 Eh       0.89 kcal/mol
-----------------------------------------------------------------------
Total thermal energy                   -234.24003643 Eh


Summary of corrections to the electronic energy:
(perhaps to be used in another calculation)
Total thermal correction                  0.00643694 Eh       4.04 kcal/mol
Non-thermal (ZPE) correction              0.14006479 Eh      87.89 kcal/mol
-----------------------------------------------------------------------
Total correction                          0.14650172 Eh      91.93 kcal/mol


--------
ENTHALPY
--------

The enthalpy is H = U + kB*T
                kB is Boltzmann's constant
Total free energy                 ...   -234.24003643 Eh 
Thermal Enthalpy correction       ...      0.00094421 Eh       0.59 kcal/mol
-----------------------------------------------------------------------
Total Enthalpy                    ...   -234.23909222 Eh


Note: Rotational entropy computed according to Herzberg 
Infrared and Raman Spectra, Chapter V,1, Van Nostrand Reinhold, 1945 
Point Group:  C1, Symmetry Number:   1  
Rotational constants in cm-1:     0.144686     0.115441     0.075244 

Vibrational entropy computed according to the QRRHO of S. Grimme
Chem.Eur.J. 2012 18 9955


-------
ENTROPY
-------

The entropy contributions are T*S = T*(S(el)+S(vib)+S(rot)+S(trans))
     S(el)   - electronic entropy
     S(vib)  - vibrational entropy
     S(rot)  - rotational entropy
     S(trans)- translational entropy
The entropies will be listed as mutliplied by the temperature to get
units of energy

Electronic entropy                ...      0.00000000 Eh      0.00 kcal/mol
Vibrational entropy               ...      0.00567730 Eh      3.56 kcal/mol
Rotational entropy                ...      0.01266400 Eh      7.95 kcal/mol
Translational entropy             ...      0.01859270 Eh     11.67 kcal/mol
-----------------------------------------------------------------------
Final entropy term                ...      0.03693400 Eh     23.18 kcal/mol


-------------------
GIBBS FREE ENTHALPY
-------------------

The Gibbs free enthalpy is G = H - T*S

Total enthalpy                    ...   -234.23909222 Eh 
Total entropy correction          ...     -0.03693400 Eh    -23.18 kcal/mol
-----------------------------------------------------------------------
Final Gibbs free enthalpy         ...   -234.27602622 Eh

For completeness - the Gibbs free enthalpy minus the electronic energy
G-E(el)                           ...      0.11051193 Eh     69.35 kcal/mol


Timings for individual modules:

Sum of individual times         ...      338.548 sec (=   5.642 min)
GTO integral calculation        ...        1.295 sec (=   0.022 min)   0.4 %
SCF iterations                  ...       18.324 sec (=   0.305 min)   5.4 %
SCF Gradient evaluation         ...        5.841 sec (=   0.097 min)   1.7 %
Geometry relaxation             ...        0.412 sec (=   0.007 min)   0.1 %
Analytical frequency calculation...      312.676 sec (=   5.211 min)  92.4 %
                             ****ORCA TERMINATED NORMALLY****
TOTAL RUN TIME: 0 days 0 hours 5 minutes 39 seconds 401 msec
