
                                 *****************
                                 * O   R   C   A *
                                 *****************

           --- An Ab Initio, DFT and Semiempirical electronic structure package ---

                  #######################################################
                  #                        -***-                        #
                  #          Department of theory and spectroscopy      #
                  #               Directorship: Frank Neese             #
                  #        Max Planck Institute fuer Kohlenforschung    #
                  #                Kaiser Wilhelm Platz 1               #
                  #                 D-45470 Muelheim/Ruhr               #
                  #                      Germany                        #
                  #                                                     #
                  #                  All rights reserved                #
                  #                        -***-                        #
                  #######################################################


                         Program Version 4.1.0  - RELEASE  -


 With contributions from (in alphabetic order):
   Daniel Aravena         : Magnetic Properties
   Michael Atanasov       : Ab Initio Ligand Field Theory
   Alexander A. Auer      : GIAO ZORA
   Ute Becker             : Parallelization
   Giovanni Bistoni       : ED, Open-shell LED
   Martin Brehm           : Molecular dynamics
   Dmytro Bykov           : SCF Hessian
   Vijay G. Chilkuri      : MRCI spin determinant printing
   Dipayan Datta          : RHF DLPNO-CCSD density
   Achintya Kumar Dutta   : EOM-CC, STEOM-CC
   Dmitry Ganyushin       : Spin-Orbit,Spin-Spin,Magnetic field MRCI
   Miquel Garcia          : C-PCM Hessian
   Yang Guo               : DLPNO-NEVPT2, CIM, IAO-localization
   Andreas Hansen         : Spin unrestricted coupled pair/coupled cluster methods
   Benjamin Helmich-Paris : CASSCF linear response (MC-RPA)
   Lee Huntington         : MR-EOM, pCC
   Robert Izsak           : Overlap fitted RIJCOSX, COSX-SCS-MP3, EOM
   Christian Kollmar      : KDIIS, OOCD, Brueckner-CCSD(T), CCSD density
   Simone Kossmann        : Meta GGA functionals, TD-DFT gradient, OOMP2, MP2 Hessian
   Martin Krupicka        : AUTO-CI
   Lucas Lang             : DCDCAS
   Dagmar Lenk            : GEPOL surface, SMD
   Dimitrios Liakos       : Extrapolation schemes; parallel MDCI
   Dimitrios Manganas     : ROCIS; embedding schemes
   Dimitrios Pantazis     : SARC Basis sets
   Taras Petrenko         : DFT Hessian,TD-DFT gradient, ASA, ECA, R-Raman, ABS, FL, XAS/XES, NRVS
   Peter Pinski           : DLPNO-MP2, DLPNO-MP2 Gradient
   Christoph Reimann      : Effective Core Potentials
   Marius Retegan         : Local ZFS, SOC
   Christoph Riplinger    : Optimizer, TS searches, QM/MM, DLPNO-CCSD(T), (RO)-DLPNO pert. Triples
   Tobias Risthaus        : Range-separated hybrids, TD-DFT gradient, RPA, STAB
   Michael Roemelt        : Restricted open shell CIS
   Masaaki Saitow         : Open-shell DLPNO
   Barbara Sandhoefer     : DKH picture change effects
   Avijit Sen             : IP-ROCIS
   Kantharuban Sivalingam : CASSCF convergence, NEVPT2, FIC-MRCI
   Bernardo de Souza      : ESD, SOC TD-DFT
   Georgi Stoychev        : AutoAux, RI-MP2 NMR
   Willem Van den Heuvel  : Paramagnetic NMR
   Boris Wezisla          : Elementary symmetry handling
   Frank Wennmohs         : Technical directorship


 We gratefully acknowledge several colleagues who have allowed us to
 interface, adapt or use parts of their codes:
   Stefan Grimme, W. Hujo, H. Kruse,             : VdW corrections, initial TS optimization,
                  C. Bannwarth                     DFT functionals, gCP, sTDA/sTD-DF
   Ed Valeev                                     : LibInt (2-el integral package), F12 methods
   Garnet Chan, S. Sharma, J. Yang, R. Olivares  : DMRG
   Ulf Ekstrom                                   : XCFun DFT Library
   Mihaly Kallay                                 : mrcc  (arbitrary order and MRCC methods)
   Andreas Klamt, Michael Diedenhofen            : otool_cosmo (COSMO solvation model)
   Jiri Pittner, Ondrej Demel                    : Mk-CCSD
   Frank Weinhold                                : gennbo (NPA and NBO analysis)
   Christopher J. Cramer and Donald G. Truhlar   : smd solvation model
   Lars Goerigk                                  : TD-DFT with DH, B97 family of functionals
   V. Asgeirsson, H. Jonsson                     : NEB implementation
   FAccTs GmbH                                   : IRC, NEB, NEB-TS, Multilevel


 Your calculation uses the libint2 library for the computation of 2-el integrals
 For citations please refer to: http://libint.valeyev.net

 This ORCA versions uses:
   CBLAS   interface :  Fast vector & matrix operations
   LAPACKE interface :  Fast linear algebra routines
   SCALAPACK package :  Parallel linear algebra routines


----- Orbital basis set information -----
Your calculation utilizes the basis: 6-31G**
   H-He, Li-Ne : W. J. Hehre, R. Ditchfield and J.A. Pople, J. Chem. Phys. 56, 2257 (1972).
                 Note: He and Ne are unpublished basis sets taken from the Gaussian program.
                 Note: Li and B from J. D. Dill and J. A. Pople, J. Chem. Phys. 62, 2921 (1975).
   Na - Ar     : M. M. Francl, W. J. Pietro, W. J. Hehre, J. S. Binkley, M. S. Gordon, 
                 D. J. DeFrees and J. A. Pople, J. Chem. Phys. 77, 3654 (1982).
   K - Zn      : V. A. Rassolov, J. A. Pople, M. A. Ratner, and T. L. Windus, J. Chem. Phys. 109, 1223 (1998).

================================================================================
                                        WARNINGS
                       Please study these warnings very carefully!
================================================================================


WARNING: Geometry Optimization
  ===> : Switching off AutoStart
         For restart on a previous wavefunction, please use MOREAD

INFO   : the flag for use of LIBINT has been found!

================================================================================
                                       INPUT FILE
================================================================================
NAME = 02_butadiene_opt.inp
|  1> ! PAL4 B3LYP 6-31G** opt freq
|  2> 
|  3> %geom
|  4>  calc_hess True
|  5> end
|  6> 
|  7> *xyz 0 1
|  8>  C                  0.00000000   -0.69897217   -0.64654389
|  9>  H                  0.00000000   -1.23254554   -1.57401328
| 10>  C                 -0.00000000    0.69897217   -0.64654389
| 11>  C                  0.00000000    1.40125920    0.56756210
| 12>  C                  0.00000000   -1.40125920    0.56756210
| 13>  H                  0.00000000   -0.87220359    1.49315488
| 14>  H                  0.00000000   -2.47393246    0.56086488
| 15>  H                 -0.00000000    2.47393246    0.56086488
| 16>  H                 -0.00000000    0.87220359    1.49315488
| 17>  H                 -0.00000000    1.23254554   -1.57401328
| 18> *
| 19> 
| 20>                          ****END OF INPUT****
================================================================================

                       *****************************
                       * Geometry Optimization Run *
                       *****************************

Geometry optimization settings:
Update method            Update   .... BFGS
Choice of coordinates    CoordSys .... Z-matrix Internals
Initial Hessian          InHess   .... Almoef's Model

Convergence Tolerances:
Energy Change            TolE     ....  5.0000e-06 Eh
Max. Gradient            TolMAXG  ....  3.0000e-04 Eh/bohr
RMS Gradient             TolRMSG  ....  1.0000e-04 Eh/bohr
Max. Displacement        TolMAXD  ....  4.0000e-03 bohr
RMS Displacement         TolRMSD  ....  2.0000e-03 bohr

------------------------------------------------------------------------------
                        ORCA OPTIMIZATION COORDINATE SETUP
------------------------------------------------------------------------------

The optimization will be done in new redundant internal coordinates
Making redundant internal coordinates   ...  (new redundants) done
Evaluating the initial hessian          ...  (Is done on the fly) done
Evaluating the coordinates              ...  done
Calculating the B-matrix                .... done
Calculating the G-matrix                .... done
Diagonalizing the G-matrix              .... done
The first mode is                       ....    9
The number of degrees of freedom        ....   24

    -----------------------------------------------------------------
                    Redundant Internal Coordinates


    -----------------------------------------------------------------
         Definition                    Initial Value    d2E/dq (diagonal element)
    -----------------------------------------------------------------
      1. B(H   1,C   0)                  1.0700         0.000000   
      2. B(C   2,C   0)                  1.3979         0.000000   
      3. B(C   3,C   2)                  1.4026         0.000000   
      4. B(C   4,C   0)                  1.4026         0.000000   
      5. B(H   5,C   4)                  1.0661         0.000000   
      6. B(H   6,C   4)                  1.0727         0.000000   
      7. B(H   7,C   3)                  1.0727         0.000000   
      8. B(H   8,C   3)                  1.0661         0.000000   
      9. B(H   9,C   2)                  1.0700         0.000000   
     10. A(H   1,C   0,C   4)          120.0414         0.000000   
     11. A(H   1,C   0,C   2)          119.9118         0.000000   
     12. A(C   2,C   0,C   4)          120.0468         0.000000   
     13. A(C   0,C   2,H   9)          119.9118         0.000000   
     14. A(C   3,C   2,H   9)          120.0414         0.000000   
     15. A(C   0,C   2,C   3)          120.0468         0.000000   
     16. A(H   7,C   3,H   8)          120.1094         0.000000   
     17. A(C   2,C   3,H   8)          120.2015         0.000000   
     18. A(C   2,C   3,H   7)          119.6891         0.000000   
     19. A(H   5,C   4,H   6)          120.1094         0.000000   
     20. A(C   0,C   4,H   6)          119.6891         0.000000   
     21. A(C   0,C   4,H   5)          120.2015         0.000000   
     22. D(C   3,C   2,C   0,C   4)      0.0000         0.000000   
     23. D(H   9,C   2,C   0,H   1)      0.0000         0.000000   
     24. D(C   3,C   2,C   0,H   1)    180.0000         0.000000   
     25. D(H   9,C   2,C   0,C   4)    180.0000         0.000000   
     26. D(H   7,C   3,C   2,H   9)      0.0000         0.000000   
     27. D(H   8,C   3,C   2,C   0)      0.0000         0.000000   
     28. D(H   7,C   3,C   2,C   0)    180.0000         0.000000   
     29. D(H   8,C   3,C   2,H   9)    180.0000         0.000000   
     30. D(H   6,C   4,C   0,C   2)    180.0000         0.000000   
     31. D(H   6,C   4,C   0,H   1)      0.0000         0.000000   
     32. D(H   5,C   4,C   0,C   2)      0.0000         0.000000   
     33. D(H   5,C   4,C   0,H   1)    180.0000         0.000000   
    -----------------------------------------------------------------

Number of atoms                         .... 10
Number of degrees of freedom            .... 33

         *************************************************************
         *                GEOMETRY OPTIMIZATION CYCLE   1            *
         *************************************************************
---------------------------------
CARTESIAN COORDINATES (ANGSTROEM)
---------------------------------
  C      0.000000   -0.698972   -0.646544
  H      0.000000   -1.232546   -1.574013
  C     -0.000000    0.698972   -0.646544
  C      0.000000    1.401259    0.567562
  C      0.000000   -1.401259    0.567562
  H      0.000000   -0.872204    1.493155
  H      0.000000   -2.473932    0.560865
  H     -0.000000    2.473932    0.560865
  H     -0.000000    0.872204    1.493155
  H     -0.000000    1.232546   -1.574013

----------------------------
CARTESIAN COORDINATES (A.U.)
----------------------------
  NO LB      ZA    FRAG     MASS         X           Y           Z
   0 C     6.0000    0    12.011    0.000000   -1.320866   -1.221791
   1 H     1.0000    0     1.008    0.000000   -2.329174   -2.974454
   2 C     6.0000    0    12.011   -0.000000    1.320866   -1.221791
   3 C     6.0000    0    12.011    0.000000    2.647996    1.072537
   4 C     6.0000    0    12.011    0.000000   -2.647996    1.072537
   5 H     1.0000    0     1.008    0.000000   -1.648226    2.821654
   6 H     1.0000    0     1.008    0.000000   -4.675055    1.059881
   7 H     1.0000    0     1.008   -0.000000    4.675055    1.059881
   8 H     1.0000    0     1.008   -0.000000    1.648226    2.821654
   9 H     1.0000    0     1.008   -0.000000    2.329174   -2.974454

--------------------------------
INTERNAL COORDINATES (ANGSTROEM)
--------------------------------
 C      0   0   0     0.000000000000     0.00000000     0.00000000
 H      1   0   0     1.070000004935     0.00000000     0.00000000
 C      1   2   0     1.397944340000   119.91182863     0.00000000
 C      3   1   2     1.402590612923   120.04679012   180.00000000
 C      1   2   3     1.402590612923   120.04138126   180.00000000
 H      5   1   2     1.066124679792   120.20154171   180.00000085
 H      5   1   2     1.072694166794   119.68906939     0.00000000
 H      4   3   1     1.072694166794   119.68906939   180.00000085
 H      4   3   1     1.066124679792   120.20154171     0.00000000
 H      3   1   2     1.070000004935   119.91182863     0.00000000

---------------------------
INTERNAL COORDINATES (A.U.)
---------------------------
 C      0   0   0     0.000000000000     0.00000000     0.00000000
 H      1   0   0     2.022006972621     0.00000000     0.00000000
 C      1   2   0     2.641731953065   119.91182863     0.00000000
 C      3   1   2     2.650512136433   120.04679012   180.00000000
 C      1   2   3     2.650512136433   120.04138126   180.00000000
 H      5   1   2     2.014683669420   120.20154171   180.00000085
 H      5   1   2     2.027098200696   119.68906939     0.00000000
 H      4   3   1     2.027098200696   119.68906939   180.00000085
 H      4   3   1     2.014683669420   120.20154171     0.00000000
 H      3   1   2     2.022006972621   119.91182863     0.00000000

---------------------
BASIS SET INFORMATION
---------------------
There are 2 groups of distinct atoms

 Group   1 Type C   : 10s4p1d contracted to 3s2p1d pattern {631/31/1}
 Group   2 Type H   : 4s1p contracted to 2s1p pattern {31/1}

Atom   0C    basis set group =>   1
Atom   1H    basis set group =>   2
Atom   2C    basis set group =>   1
Atom   3C    basis set group =>   1
Atom   4C    basis set group =>   1
Atom   5H    basis set group =>   2
Atom   6H    basis set group =>   2
Atom   7H    basis set group =>   2
Atom   8H    basis set group =>   2
Atom   9H    basis set group =>   2


           ************************************************************
           *        Program running with 4 parallel MPI-processes     *
           *              working on a common directory               *
           ************************************************************
------------------------------------------------------------------------------
                           ORCA GTO INTEGRAL CALCULATION
------------------------------------------------------------------------------

                         BASIS SET STATISTICS AND STARTUP INFO

 # of primitive gaussian shells          ...   90
 # of primitive gaussian functions       ...  150
 # of contracted shells                  ...   42
 # of contracted basis functions         ...   86
 Highest angular momentum                ...    2
 Maximum contraction depth               ...    6
 Integral package used                   ... LIBINT
 Integral threshhold            Thresh   ...  2.500e-11
 Primitive cut-off              TCut     ...  2.500e-12


------------------------------ INTEGRAL EVALUATION ----------------------------


 * One electron integrals 
 Pre-screening matrix                    ... done
 Shell pair data                         ... done (   0.000 sec)



           ************************************************************
           *        Program running with 4 parallel MPI-processes     *
           *              working on a common directory               *
           ************************************************************
-------------------------------------------------------------------------------
                                 ORCA SCF
-------------------------------------------------------------------------------

------------
SCF SETTINGS
------------
Hamiltonian:
 Density Functional     Method          .... DFT(GTOs)
 Exchange Functional    Exchange        .... B88
   X-Alpha parameter    XAlpha          ....  0.666667
   Becke's b parameter  XBeta           ....  0.004200
 Correlation Functional Correlation     .... LYP
 LDA part of GGA corr.  LDAOpt          .... VWN-5
 Gradients option       PostSCFGGA      .... off
 Hybrid DFT is turned on
   Fraction HF Exchange ScalHFX         ....  0.200000
   Scaling of DF-GGA-X  ScalDFX         ....  0.720000
   Scaling of DF-GGA-C  ScalDFC         ....  0.810000
   Scaling of DF-LDA-C  ScalLDAC        ....  1.000000
   Perturbative correction              ....  0.000000
   Density functional embedding theory  .... OFF
   NL short-range parameter             ....  4.800000


General Settings:
 Integral files         IntName         .... 02_butadiene_opt
 Hartree-Fock type      HFTyp           .... RHF
 Total Charge           Charge          ....    0
 Multiplicity           Mult            ....    1
 Number of Electrons    NEL             ....   30
 Basis Dimension        Dim             ....   86
 Nuclear Repulsion      ENuc            ....    106.1048216296 Eh

Convergence Acceleration:
 DIIS                   CNVDIIS         .... on
   Start iteration      DIISMaxIt       ....    12
   Startup error        DIISStart       ....  0.200000
   # of expansion vecs  DIISMaxEq       ....     5
   Bias factor          DIISBfac        ....   1.050
   Max. coefficient     DIISMaxC        ....  10.000
 Newton-Raphson         CNVNR           .... off
 SOSCF                  CNVSOSCF        .... on
   Start iteration      SOSCFMaxIt      ....   150
   Startup grad/error   SOSCFStart      ....  0.003300
 Level Shifting         CNVShift        .... on
   Level shift para.    LevelShift      ....    0.2500
   Turn off err/grad.   ShiftErr        ....    0.0010
 Zerner damping         CNVZerner       .... off
 Static damping         CNVDamp         .... on
   Fraction old density DampFac         ....    0.7000
   Max. Damping (<1)    DampMax         ....    0.9800
   Min. Damping (>=0)   DampMin         ....    0.0000
   Turn off err/grad.   DampErr         ....    0.1000
 Fernandez-Rico         CNVRico         .... off

SCF Procedure:
 Maximum # iterations   MaxIter         ....   125
 SCF integral mode      SCFMode         .... Direct
   Integral package                     .... LIBINT
 Reset frequency        DirectResetFreq ....    20
 Integral Threshold     Thresh          ....  2.500e-11 Eh
 Primitive CutOff       TCut            ....  2.500e-12 Eh

Convergence Tolerance:
 Convergence Check Mode ConvCheckMode   .... Total+1el-Energy
 Convergence forced     ConvForced      .... 0
 Energy Change          TolE            ....  1.000e-08 Eh
 1-El. energy change                    ....  1.000e-05 Eh
 Orbital Gradient       TolG            ....  1.000e-05
 Orbital Rotation angle TolX            ....  1.000e-05
 DIIS Error             TolErr          ....  5.000e-07


Diagonalization of the overlap matrix:
Smallest eigenvalue                        ... 2.543e-03
Time for diagonalization                   ...    0.001 sec
Threshold for overlap eigenvalues          ... 1.000e-08
Number of eigenvalues below threshold      ... 0
Time for construction of square roots      ...    0.001 sec
Total time needed                          ...    0.002 sec

-------------------
DFT GRID GENERATION
-------------------

General Integration Accuracy     IntAcc      ...  4.340
Radial Grid Type                 RadialGrid  ... Gauss-Chebyshev
Angular Grid (max. acc.)         AngularGrid ... Lebedev-110
Angular grid pruning method      GridPruning ... 3 (G Style)
Weight generation scheme         WeightScheme... Becke
Basis function cutoff            BFCut       ...    1.0000e-11
Integration weight cutoff        WCut        ...    1.0000e-14
Grids for H and He will be reduced by one unit

# of grid points (after initial pruning)     ...  11388 (   0.0 sec)
# of grid points (after weights+screening)   ...  10770 (   0.0 sec)
nearest neighbour list constructed           ...    0.0 sec
Grid point re-assignment to atoms done       ...    0.0 sec
Grid point division into batches done        ...    0.0 sec
Reduced shell lists constructed in    0.0 sec

Total number of grid points                  ...    10770
Total number of batches                      ...      172
Average number of points per batch           ...       62
Average number of grid points per atom       ...     1077
Average number of shells per batch           ...    34.98 (83.28%)
Average number of basis functions per batch  ...    71.93 (83.64%)
Average number of large shells per batch     ...    29.48 (84.28%)
Average number of large basis fcns per batch ...    60.34 (83.89%)
Maximum spatial batch extension              ...  25.60, 13.88, 15.30 au
Average spatial batch extension              ...   1.40,  0.76,  0.80 au

Time for grid setup =    0.052 sec

------------------------------
INITIAL GUESS: MODEL POTENTIAL
------------------------------
Loading Hartree-Fock densities                     ... done
Calculating cut-offs                               ... done
Setting up the integral package                    ... done
Initializing the effective Hamiltonian             ... done
Starting the Coulomb interaction                   ... done (   0.0 sec)
Reading the grid                                   ... done
Mapping shells                                     ... done
Starting the XC term evaluation                    ... done (   0.0 sec)
  promolecular density results
     # of electrons  =     30.001169578
     EX              =    -22.288074160
     EC              =     -0.954306567
     EX+EC           =    -23.242380727
Transforming the Hamiltonian                       ... done (   0.0 sec)
Diagonalizing the Hamiltonian                      ... done (   0.0 sec)
Back transforming the eigenvectors                 ... done (   0.0 sec)
Now organizing SCF variables                       ... done
                      ------------------
                      INITIAL GUESS DONE (   0.2 sec)
                      ------------------
--------------
SCF ITERATIONS
--------------
ITER       Energy         Delta-E        Max-DP      RMS-DP      [F,P]     Damp
               ***  Starting incremental Fock matrix formation  ***
  0   -155.7441509341   0.000000000000 0.04481105  0.00256684  0.1303178 0.7000
  1   -155.7960845802  -0.051933646109 0.03143691  0.00200514  0.0735337 0.7000
                               ***Turning on DIIS***
  2   -155.8196388050  -0.023554224787 0.05698985  0.00355529  0.0327855 0.0000
  3   -155.8524366906  -0.032797885568 0.02255674  0.00137492  0.0368778 0.0000
  4   -155.8610310159  -0.008594325339 0.00806036  0.00041679  0.0088510 0.0000
                      *** Initiating the SOSCF procedure ***
                           *** Shutting down DIIS ***
                      *** Re-Reading the Fockian *** 
                      *** Removing any level shift *** 
ITER      Energy       Delta-E        Grad      Rot      Max-DP    RMS-DP
  5   -155.86147928  -0.0004482627  0.000964  0.000964  0.003067  0.000149
               *** Restarting incremental Fock matrix formation ***
  6   -155.86150724  -0.0000279627  0.000570  0.002105  0.001640  0.000089
  7   -155.86150147   0.0000057751  0.001051  0.001304  0.001117  0.000048
  8   -155.86151085  -0.0000093880  0.000107  0.000184  0.000351  0.000021
  9   -155.86151082   0.0000000301  0.000131  0.000099  0.000176  0.000010
 10   -155.86151107  -0.0000002411  0.000004  0.000007  0.000005  0.000000
                 **** Energy Check signals convergence ****
              ***Rediagonalizing the Fockian in SOSCF/NRSCF***

               *****************************************************
               *                     SUCCESS                       *
               *           SCF CONVERGED AFTER  11 CYCLES          *
               *****************************************************

Setting up the final grid:

General Integration Accuracy     IntAcc      ...  4.670
Radial Grid Type                 RadialGrid  ... Gauss-Chebyshev
Angular Grid (max. acc.)         AngularGrid ... Lebedev-302
Angular grid pruning method      GridPruning ... 3 (G Style)
Weight generation scheme         WeightScheme... Becke
Basis function cutoff            BFCut       ...    1.0000e-11
Integration weight cutoff        WCut        ...    1.0000e-14
Grids for H and He will be reduced by one unit

# of grid points (after initial pruning)     ...  45212 (   0.0 sec)
# of grid points (after weights+screening)   ...  42474 (   0.0 sec)
nearest neighbour list constructed           ...    0.0 sec
Grid point re-assignment to atoms done       ...    0.0 sec
Grid point division into batches done        ...    0.1 sec
Reduced shell lists constructed in    0.2 sec

Total number of grid points                  ...    42474
Total number of batches                      ...      670
Average number of points per batch           ...       63
Average number of grid points per atom       ...     4247
Average number of shells per batch           ...    32.69 (77.82%)
Average number of basis functions per batch  ...    67.08 (78.00%)
Average number of large shells per batch     ...    27.14 (83.02%)
Average number of large basis fcns per batch ...    55.43 (82.64%)
Maximum spatial batch extension              ...  17.18, 14.22, 15.61 au
Average spatial batch extension              ...   0.70,  0.55,  0.55 au

Final grid set up in    0.2 sec
Final integration                            ... done (   0.1 sec)
Change in XC energy                          ...    -0.000847456
Integrated number of electrons               ...    29.999800056
Previous integrated no of electrons          ...    30.000501807

----------------
TOTAL SCF ENERGY
----------------

Total Energy       :         -155.86235852 Eh           -4241.23040 eV

Components:
Nuclear Repulsion  :          106.10482163 Eh            2887.25898 eV
Electronic Energy  :         -261.96718015 Eh           -7128.48938 eV
One Electron Energy:         -418.25856822 Eh          -11381.39426 eV
Two Electron Energy:          156.29138807 Eh            4252.90488 eV

Virial components:
Potential Energy   :         -310.74253221 Eh           -8455.73418 eV
Kinetic Energy     :          154.88017369 Eh            4214.50379 eV
Virial Ratio       :            2.00634158


DFT components:
N(Alpha)           :       14.999900028237 electrons
N(Beta)            :       14.999900028237 electrons
N(Total)           :       29.999800056475 electrons
E(X)               :      -18.107449696617 Eh       
E(C)               :       -1.138389940756 Eh       
E(XC)              :      -19.245839637373 Eh       
DFET-embed. en.    :        0.000000000000 Eh       

---------------
SCF CONVERGENCE
---------------

  Last Energy change         ...    3.8051e-10  Tolerance :   1.0000e-08
  Last MAX-Density change    ...    2.1064e-06  Tolerance :   1.0000e-07
  Last RMS-Density change    ...    1.6765e-07  Tolerance :   5.0000e-09
  Last Orbital Gradient      ...    2.0817e-06  Tolerance :   1.0000e-05
  Last Orbital Rotation      ...    1.6651e-06  Tolerance :   1.0000e-05

             **** THE GBW FILE WAS UPDATED (02_butadiene_opt.gbw) ****
             **** DENSITY FILE WAS UPDATED (02_butadiene_opt.scfp.tmp) ****
             **** ENERGY FILE WAS UPDATED (02_butadiene_opt.en.tmp) ****
----------------
ORBITAL ENERGIES
----------------

  NO   OCC          E(Eh)            E(eV) 
   0   2.0000     -10.182756      -277.0869 
   1   2.0000     -10.182343      -277.0756 
   2   2.0000     -10.174857      -276.8719 
   3   2.0000     -10.174835      -276.8713 
   4   2.0000      -0.801747       -21.8167 
   5   2.0000      -0.699830       -19.0433 
   6   2.0000      -0.627886       -17.0856 
   7   2.0000      -0.522566       -14.2198 
   8   2.0000      -0.493902       -13.4397 
   9   2.0000      -0.433257       -11.7895 
  10   2.0000      -0.395717       -10.7680 
  11   2.0000      -0.363865        -9.9013 
  12   2.0000      -0.354520        -9.6470 
  13   2.0000      -0.314968        -8.5707 
  14   2.0000      -0.205147        -5.5823 
  15   0.0000      -0.044325        -1.2061 
  16   0.0000       0.092162         2.5079 
  17   0.0000       0.114329         3.1110 
  18   0.0000       0.119950         3.2640 
  19   0.0000       0.170072         4.6279 
  20   0.0000       0.197857         5.3840 
  21   0.0000       0.209373         5.6973 
  22   0.0000       0.252588         6.8733 
  23   0.0000       0.272755         7.4220 
  24   0.0000       0.349045         9.4980 
  25   0.0000       0.453911        12.3515 
  26   0.0000       0.482586        13.1318 
  27   0.0000       0.536775        14.6064 
  28   0.0000       0.546781        14.8787 
  29   0.0000       0.610846        16.6220 
  30   0.0000       0.617239        16.7959 
  31   0.0000       0.618550        16.8316 
  32   0.0000       0.625964        17.0333 
  33   0.0000       0.650347        17.6969 
  34   0.0000       0.670401        18.2425 
  35   0.0000       0.688150        18.7255 
  36   0.0000       0.826916        22.5015 
  37   0.0000       0.846201        23.0263 
  38   0.0000       0.871058        23.7027 
  39   0.0000       0.885879        24.1060 
  40   0.0000       0.948408        25.8075 
  41   0.0000       0.961998        26.1773 
  42   0.0000       0.992258        27.0007 
  43   0.0000       1.041853        28.3503 
  44   0.0000       1.102544        30.0017 
  45   0.0000       1.176852        32.0238 
  46   0.0000       1.212854        33.0034 
  47   0.0000       1.320260        35.9261 
  48   0.0000       1.341795        36.5121 
  49   0.0000       1.427886        38.8548 
  50   0.0000       1.461204        39.7614 
  51   0.0000       1.474845        40.1326 
  52   0.0000       1.492456        40.6118 
  53   0.0000       1.822159        49.5835 
  54   0.0000       1.828830        49.7650 
  55   0.0000       1.878143        51.1069 
  56   0.0000       1.911094        52.0035 
  57   0.0000       1.959760        53.3278 
  58   0.0000       2.002010        54.4775 
  59   0.0000       2.036793        55.4239 
  60   0.0000       2.050530        55.7978 
  61   0.0000       2.089304        56.8529 
  62   0.0000       2.092261        56.9333 
  63   0.0000       2.279363        62.0246 
  64   0.0000       2.293332        62.4047 
  65   0.0000       2.388146        64.9848 
  66   0.0000       2.394405        65.1551 
  67   0.0000       2.469026        67.1856 
  68   0.0000       2.477934        67.4280 
  69   0.0000       2.486485        67.6607 
  70   0.0000       2.489032        67.7300 
  71   0.0000       2.498082        67.9763 
  72   0.0000       2.616811        71.2071 
  73   0.0000       2.630131        71.5695 
  74   0.0000       2.714000        73.8517 
  75   0.0000       2.738071        74.5067 
  76   0.0000       2.805027        76.3287 
  77   0.0000       2.877318        78.2958 
  78   0.0000       2.919059        79.4316 
  79   0.0000       3.150519        85.7300 
  80   0.0000       3.275833        89.1399 
  81   0.0000       3.336043        90.7783 
  82   0.0000       3.455439        94.0273 
  83   0.0000       3.531164        96.0878 
  84   0.0000       3.542874        96.4065 
  85   0.0000       3.851392       104.8017 

                    ********************************
                    * MULLIKEN POPULATION ANALYSIS *
                    ********************************

-----------------------
MULLIKEN ATOMIC CHARGES
-----------------------
   0 C :   -0.047386
   1 H :    0.085892
   2 C :   -0.047386
   3 C :   -0.232003
   4 C :   -0.232003
   5 H :    0.093662
   6 H :    0.099836
   7 H :    0.099836
   8 H :    0.093662
   9 H :    0.085892
Sum of atomic charges:   -0.0000000

--------------------------------
MULLIKEN REDUCED ORBITAL CHARGES
--------------------------------
  0 C s       :     3.162425  s :     3.162425
      pz      :     0.939592  p :     2.850011
      px      :     0.976299
      py      :     0.934120
      dz2     :     0.009185  d :     0.034950
      dxz     :     0.002819
      dyz     :     0.012115
      dx2y2   :     0.005262
      dxy     :     0.005569
  1 H s       :     0.901559  s :     0.901559
      pz      :     0.006106  p :     0.012549
      px      :     0.002833
      py      :     0.003610
  2 C s       :     3.162425  s :     3.162425
      pz      :     0.939592  p :     2.850011
      px      :     0.976299
      py      :     0.934120
      dz2     :     0.009185  d :     0.034950
      dxz     :     0.002819
      dyz     :     0.012115
      dx2y2   :     0.005262
      dxy     :     0.005569
  3 C s       :     3.231802  s :     3.231802
      pz      :     0.969985  p :     2.974652
      px      :     1.002488
      py      :     1.002180
      dz2     :     0.008446  d :     0.025549
      dxz     :     0.002758
      dyz     :     0.008640
      dx2y2   :     0.004615
      dxy     :     0.001091
  4 C s       :     3.231802  s :     3.231802
      pz      :     0.969985  p :     2.974652
      px      :     1.002488
      py      :     1.002180
      dz2     :     0.008446  d :     0.025549
      dxz     :     0.002758
      dyz     :     0.008640
      dx2y2   :     0.004615
      dxy     :     0.001091
  5 H s       :     0.893253  s :     0.893253
      pz      :     0.006211  p :     0.013085
      px      :     0.002982
      py      :     0.003891
  6 H s       :     0.887516  s :     0.887516
      pz      :     0.002112  p :     0.012649
      px      :     0.003161
      py      :     0.007376
  7 H s       :     0.887516  s :     0.887516
      pz      :     0.002112  p :     0.012649
      px      :     0.003161
      py      :     0.007376
  8 H s       :     0.893253  s :     0.893253
      pz      :     0.006211  p :     0.013085
      px      :     0.002982
      py      :     0.003891
  9 H s       :     0.901559  s :     0.901559
      pz      :     0.006106  p :     0.012549
      px      :     0.002833
      py      :     0.003610


                     *******************************
                     * LOEWDIN POPULATION ANALYSIS *
                     *******************************

----------------------
LOEWDIN ATOMIC CHARGES
----------------------
   0 C :   -0.072386
   1 H :    0.070720
   2 C :   -0.072386
   3 C :   -0.134650
   4 C :   -0.134650
   5 H :    0.067089
   6 H :    0.069227
   7 H :    0.069227
   8 H :    0.067089
   9 H :    0.070720

-------------------------------
LOEWDIN REDUCED ORBITAL CHARGES
-------------------------------
  0 C s       :     2.902699  s :     2.902699
      pz      :     1.067960  p :     3.084729
      px      :     0.958860
      py      :     1.057909
      dz2     :     0.022698  d :     0.084958
      dxz     :     0.005793
      dyz     :     0.031289
      dx2y2   :     0.013014
      dxy     :     0.012165
  1 H s       :     0.887798  s :     0.887798
      pz      :     0.021520  p :     0.041481
      px      :     0.008184
      py      :     0.011777
  2 C s       :     2.902699  s :     2.902699
      pz      :     1.067960  p :     3.084729
      px      :     0.958860
      py      :     1.057909
      dz2     :     0.022698  d :     0.084958
      dxz     :     0.005793
      dyz     :     0.031289
      dx2y2   :     0.013014
      dxy     :     0.012165
  3 C s       :     2.951447  s :     2.951447
      pz      :     1.071990  p :     3.127972
      px      :     0.989100
      py      :     1.066883
      dz2     :     0.019524  d :     0.055231
      dxz     :     0.005440
      dyz     :     0.020592
      dx2y2   :     0.007752
      dxy     :     0.001922
  4 C s       :     2.951447  s :     2.951447
      pz      :     1.071990  p :     3.127972
      px      :     0.989100
      py      :     1.066883
      dz2     :     0.019524  d :     0.055231
      dxz     :     0.005440
      dyz     :     0.020592
      dx2y2   :     0.007752
      dxy     :     0.001922
  5 H s       :     0.887695  s :     0.887695
      pz      :     0.022289  p :     0.045216
      px      :     0.009105
      py      :     0.013821
  6 H s       :     0.887828  s :     0.887828
      pz      :     0.006288  p :     0.042944
      px      :     0.009431
      py      :     0.027226
  7 H s       :     0.887828  s :     0.887828
      pz      :     0.006288  p :     0.042944
      px      :     0.009431
      py      :     0.027226
  8 H s       :     0.887695  s :     0.887695
      pz      :     0.022289  p :     0.045216
      px      :     0.009105
      py      :     0.013821
  9 H s       :     0.887798  s :     0.887798
      pz      :     0.021520  p :     0.041481
      px      :     0.008184
      py      :     0.011777


                      *****************************
                      * MAYER POPULATION ANALYSIS *
                      *****************************

  NA   - Mulliken gross atomic population
  ZA   - Total nuclear charge
  QA   - Mulliken gross atomic charge
  VA   - Mayer's total valence
  BVA  - Mayer's bonded valence
  FA   - Mayer's free valence

  ATOM       NA         ZA         QA         VA         BVA        FA
  0 C      6.0474     6.0000    -0.0474     3.9691     3.9691    -0.0000
  1 H      0.9141     1.0000     0.0859     0.9550     0.9550    -0.0000
  2 C      6.0474     6.0000    -0.0474     3.9691     3.9691    -0.0000
  3 C      6.2320     6.0000    -0.2320     3.9236     3.9236     0.0000
  4 C      6.2320     6.0000    -0.2320     3.9236     3.9236    -0.0000
  5 H      0.9063     1.0000     0.0937     0.9620     0.9620     0.0000
  6 H      0.9002     1.0000     0.0998     0.9620     0.9620     0.0000
  7 H      0.9002     1.0000     0.0998     0.9620     0.9620     0.0000
  8 H      0.9063     1.0000     0.0937     0.9620     0.9620     0.0000
  9 H      0.9141     1.0000     0.0859     0.9550     0.9550     0.0000

  Mayer bond orders larger than 0.1
B(  0-C ,  1-H ) :   0.9474 B(  0-C ,  2-C ) :   1.1752 B(  0-C ,  4-C ) :   1.8491 
B(  2-C ,  3-C ) :   1.8491 B(  2-C ,  9-H ) :   0.9474 B(  3-C ,  4-C ) :   0.1666 
B(  3-C ,  7-H ) :   0.9553 B(  3-C ,  8-H ) :   0.9467 B(  4-C ,  5-H ) :   0.9467 
B(  4-C ,  6-H ) :   0.9553 

-------
TIMINGS
-------

Total SCF time: 0 days 0 hours 0 min 4 sec 

Total time                  ....       4.643 sec
Sum of individual times     ....       4.327 sec  ( 93.2%)

Fock matrix formation       ....       3.882 sec  ( 83.6%)
  XC integration            ....       0.346 sec  (  8.9% of F)
    Basis function eval.    ....       0.114 sec  ( 32.9% of XC)
    Density eval.           ....       0.056 sec  ( 16.3% of XC)
    XC-Functional eval.     ....       0.027 sec  (  7.8% of XC)
    XC-Potential eval.      ....       0.069 sec  ( 19.8% of XC)
Diagonalization             ....       0.006 sec  (  0.1%)
Density matrix formation    ....       0.001 sec  (  0.0%)
Population analysis         ....       0.017 sec  (  0.4%)
Initial guess               ....       0.124 sec  (  2.7%)
Orbital Transformation      ....       0.000 sec  (  0.0%)
Orbital Orthonormalization  ....       0.000 sec  (  0.0%)
DIIS solution               ....       0.004 sec  (  0.1%)
SOSCF solution              ....       0.008 sec  (  0.2%)
Grid generation             ....       0.285 sec  (  6.1%)

-------------------------   --------------------
FINAL SINGLE POINT ENERGY      -155.862358520439
-------------------------   --------------------



           ************************************************************
           *        Program running with 4 parallel MPI-processes     *
           *              working on a common directory               *
           ************************************************************
------------------------------------------------------------------------------
                         ORCA SCF GRADIENT CALCULATION
------------------------------------------------------------------------------

Gradient of the Kohn-Sham DFT energy:
Kohn-Sham wavefunction type      ... RKS
Hartree-Fock exchange scaling    ...    0.200
Number of operators              ...    1
Number of atoms                  ...   10
Basis set dimensions             ...   86
Integral neglect threshold       ... 2.5e-11
Integral primitive cutoff        ... 2.5e-12

Nuclear repulsion gradient       ... done
One Electron Gradient            ... done
Pre-screening matrix             ... done
Starting the two electron gradient:
Two electron gradient done
Exchange-correlation gradient    ... done

------------------
CARTESIAN GRADIENT
------------------

   1   C   :    0.000000000    0.062559843   -0.063283691
   2   H   :    0.000000000    0.007787329    0.009717495
   3   C   :    0.000000000   -0.062559846   -0.063283687
   4   C   :   -0.000000000    0.011568084    0.067970049
   5   C   :   -0.000000000   -0.011568082    0.067970048
   6   H   :   -0.000000000    0.002640337   -0.011215938
   7   H   :   -0.000000000    0.008517634   -0.003187917
   8   H   :   -0.000000000   -0.008517634   -0.003187919
   9   H   :   -0.000000000   -0.002640336   -0.011215934
  10   H   :    0.000000000   -0.007787328    0.009717496

Difference to translation invariance:
           :   -0.0000000000    0.0000000000   -0.0000000000

Norm of the cartesian gradient     ...    0.1615107502
RMS gradient                       ...    0.0294876937
MAX gradient                       ...    0.0679700487

-------
TIMINGS
-------

Total SCF gradient time            ...        0.918 sec

One electron gradient       ....       0.014 sec  (  1.5%)
Prescreening matrices       ....       0.011 sec  (  1.2%)
Two electron gradient       ....       0.379 sec  ( 41.3%)
XC gradient                 ....       0.235 sec  ( 25.6%)


           ************************************************************
           *        Program running with 4 parallel MPI-processes     *
           *              working on a common directory               *
           ************************************************************

-------------------------------------------------------------------------------
                               ORCA SCF HESSIAN
-------------------------------------------------------------------------------

Hessian of the Kohn-Sham DFT energy:
Kohn-Sham wavefunction type                      ... RKS
Hartree-Fock exchange scaling                    ...    0.200
Number of operators                              ...    1
Number of atoms                                  ...   10
Basis set dimensions                             ...   86
Integral neglect threshold                       ... 2.5e-11
Integral primitive cutoff                        ... 2.5e-12

Setting up DFT Hessian calculations              ... 
Electron density on the grid                     ... found on disk
Electron density on the final grid               ... found on disk
Building xc-kernel on the grid                   ... done   (      0.0 sec)
Building xc-kernel on the final grid             ... done   (      0.0 sec)
                                                     done   (      0.1 sec)

Nuclear repulsion Hessian                        ... done   (      0.0 sec)

----------------------------------------------
Forming right-hand sides of CP-SCF equations     ...
----------------------------------------------
One electron integral derivatives                ... done   (      0.1 sec)
Transforming the overlap derivative matrices     ... done   (      0.0 sec)
Making the Q(x) pseudodensities                  ... done   (      0.0 sec)
Adding the E*S(x)*S(y) terms to the Hessian      ... done   (      0.0 sec)
Calculating energy weighted overlap derivatives  ... done   (      0.0 sec)
Two electron integral derivatives                ... done   (      0.7 sec)
Exchange-correlation integral derivatives        ... done   (      2.1 sec)
tr(F(y)Q(x)) contribution to the Hessian         ... done   (      0.0 sec)
Response fock operator R(S(x))                   ... done   (      1.1 sec)
XC Response fock operator R(S(x))                ... done   (      0.9 sec)
tr(F(y)S(x)) contribution to the Hessian         ... done   (      0.0 sec)
Transforming and finalizing RHSs                 ... done   (      0.0 sec)

----------------------------------------------
Solving the CP-SCF equations                     ...
----------------------------------------------
     CP-SCF ITERATION   0: 
     CP-SCF ITERATION   1:      0.002960893884
     CP-SCF ITERATION   2:      0.000258619612
     CP-SCF ITERATION   3:      0.000028680951
     CP-SCF ITERATION   4:      0.000002344954
     CP-SCF ITERATION   5:      0.000000168622
     CP-SCF ITERATION   6:      0.000000009573

                                                 ... done   (     13.4 sec)
Forming perturbed density Hessian contributions  ... done   (      0.0 sec)
Making the perturbed densities                   ... done   (      0.0 sec)
2nd integral derivative contribs                 ... done   (      3.6 sec)
Exchange-correlation Hessian                     ... done   (      2.3 sec)
Dipol derivatives                                ... done   (      0.2 sec)

Total SCF Hessian time: 0 days 0 hours 0 min 24 sec 

Writing the Hessian file to the disk             ... done


Maximum memory used throughout the entire calculation: 93.3 MB

-----------------------
VIBRATIONAL FREQUENCIES
-----------------------

Scaling factor for frequencies =  1.000000000  (already applied!)

   0:         0.00 cm**-1
   1:         0.00 cm**-1
   2:         0.00 cm**-1
   3:         0.00 cm**-1
   4:         0.00 cm**-1
   5:         0.00 cm**-1
   6:      -379.18 cm**-1 ***imaginary mode***
   7:       444.57 cm**-1
   8:       502.99 cm**-1
   9:       530.17 cm**-1
  10:       643.76 cm**-1
  11:       792.90 cm**-1
  12:       806.19 cm**-1
  13:       921.02 cm**-1
  14:       927.63 cm**-1
  15:       930.55 cm**-1
  16:      1066.87 cm**-1
  17:      1087.74 cm**-1
  18:      1217.06 cm**-1
  19:      1250.74 cm**-1
  20:      1379.12 cm**-1
  21:      1497.84 cm**-1
  22:      1526.84 cm**-1
  23:      1581.64 cm**-1
  24:      3293.01 cm**-1
  25:      3301.84 cm**-1
  26:      3339.58 cm**-1
  27:      3358.56 cm**-1
  28:      3424.11 cm**-1
  29:      3444.35 cm**-1


------------
NORMAL MODES
------------

These modes are the Cartesian displacements weighted by the diagonal matrix
M(i,i)=1/sqrt(m[i]) where m[i] is the mass of the displaced atom
Thus, these vectors are normalized but *not* orthogonal

                  0          1          2          3          4          5    
      0       0.000000   0.000000   0.000000   0.000000   0.000000   0.000000
      1       0.000000   0.000000   0.000000   0.000000   0.000000   0.000000
      2       0.000000   0.000000   0.000000   0.000000   0.000000   0.000000
      3       0.000000   0.000000   0.000000   0.000000   0.000000   0.000000
      4       0.000000   0.000000   0.000000   0.000000   0.000000   0.000000
      5       0.000000   0.000000   0.000000   0.000000   0.000000   0.000000
      6       0.000000   0.000000   0.000000   0.000000   0.000000   0.000000
      7       0.000000   0.000000   0.000000   0.000000   0.000000   0.000000
      8       0.000000   0.000000   0.000000   0.000000   0.000000   0.000000
      9       0.000000   0.000000   0.000000   0.000000   0.000000   0.000000
     10       0.000000   0.000000   0.000000   0.000000   0.000000   0.000000
     11       0.000000   0.000000   0.000000   0.000000   0.000000   0.000000
     12       0.000000   0.000000   0.000000   0.000000   0.000000   0.000000
     13       0.000000   0.000000   0.000000   0.000000   0.000000   0.000000
     14       0.000000   0.000000   0.000000   0.000000   0.000000   0.000000
     15       0.000000   0.000000   0.000000   0.000000   0.000000   0.000000
     16       0.000000   0.000000   0.000000   0.000000   0.000000   0.000000
     17       0.000000   0.000000   0.000000   0.000000   0.000000   0.000000
     18       0.000000   0.000000   0.000000   0.000000   0.000000   0.000000
     19       0.000000   0.000000   0.000000   0.000000   0.000000   0.000000
     20       0.000000   0.000000   0.000000   0.000000   0.000000   0.000000
     21       0.000000   0.000000   0.000000   0.000000   0.000000   0.000000
     22       0.000000   0.000000   0.000000   0.000000   0.000000   0.000000
     23       0.000000   0.000000   0.000000   0.000000   0.000000   0.000000
     24       0.000000   0.000000   0.000000   0.000000   0.000000   0.000000
     25       0.000000   0.000000   0.000000   0.000000   0.000000   0.000000
     26       0.000000   0.000000   0.000000   0.000000   0.000000   0.000000
     27       0.000000   0.000000   0.000000   0.000000   0.000000   0.000000
     28       0.000000   0.000000   0.000000   0.000000   0.000000   0.000000
     29       0.000000   0.000000   0.000000   0.000000   0.000000   0.000000
                  6          7          8          9         10         11    
      0       0.066461   0.073645  -0.000000   0.000000  -0.181518   0.079989
      1       0.000000   0.000000   0.003996  -0.105243   0.000000   0.000000
      2      -0.000000   0.000000  -0.089009  -0.142318   0.000000  -0.000000
      3       0.381688  -0.348234   0.000000  -0.000000  -0.102453   0.174254
      4      -0.000000  -0.000000  -0.145489   0.011124   0.000000   0.000000
      5      -0.000000   0.000000  -0.000333  -0.206866  -0.000000   0.000000
      6      -0.066461   0.073645  -0.000000   0.000000   0.181518  -0.079989
      7      -0.000000   0.000000  -0.003996  -0.105243   0.000000  -0.000000
      8       0.000000  -0.000000  -0.089009   0.142318  -0.000000  -0.000000
      9       0.058335  -0.030664   0.000000  -0.000000  -0.006100   0.139971
     10      -0.000000  -0.000000  -0.262100   0.061316  -0.000000  -0.000000
     11       0.000000  -0.000000   0.062525   0.066548  -0.000000   0.000000
     12      -0.058335  -0.030664   0.000000  -0.000000   0.006100  -0.139971
     13       0.000000  -0.000000   0.262100   0.061316  -0.000000   0.000000
     14       0.000000   0.000000   0.062525  -0.066548   0.000000   0.000000
     15      -0.561188   0.341680  -0.000000   0.000000  -0.123074   0.531748
     16       0.000000  -0.000000   0.434884   0.448324  -0.000000  -0.000000
     17      -0.000000   0.000000  -0.052636  -0.288352   0.000000   0.000000
     18       0.177656  -0.505593   0.000000  -0.000000   0.664357   0.401109
     19      -0.000000   0.000000   0.265652   0.063967  -0.000000   0.000000
     20       0.000000  -0.000000   0.368540   0.359626  -0.000000  -0.000000
     21      -0.177656  -0.505593   0.000000  -0.000000  -0.664357  -0.401110
     22      -0.000000  -0.000000  -0.265652   0.063967  -0.000000  -0.000000
     23      -0.000000   0.000000   0.368540  -0.359626   0.000000  -0.000000
     24       0.561188   0.341680  -0.000000   0.000000   0.123074  -0.531749
     25      -0.000000  -0.000000  -0.434884   0.448324  -0.000000   0.000000
     26      -0.000000  -0.000000  -0.052636   0.288352   0.000000   0.000000
     27      -0.381688  -0.348234   0.000000  -0.000000   0.102453  -0.174254
     28       0.000000   0.000000   0.145489   0.011124  -0.000000   0.000000
     29       0.000000  -0.000000  -0.000333   0.206866  -0.000000   0.000000
                 12         13         14         15         16         17    
      0      -0.031857  -0.000000  -0.102450   0.061365   0.000000  -0.000000
      1      -0.000000   0.056181  -0.000000  -0.000000  -0.092598   0.085315
      2       0.000000   0.028047  -0.000000  -0.000000  -0.034923   0.113174
      3      -0.002169   0.000000   0.639826  -0.558132  -0.000000   0.000000
      4      -0.000000  -0.113439   0.000000   0.000000  -0.401748   0.611275
      5       0.000000   0.132190  -0.000000  -0.000000   0.147008  -0.180058
      6      -0.031856   0.000000   0.102450   0.061365   0.000000   0.000000
      7       0.000000  -0.056181   0.000000   0.000000  -0.092598  -0.085315
      8      -0.000000   0.028047  -0.000000  -0.000000   0.034923   0.113174
      9       0.114731  -0.000000  -0.023250  -0.009878   0.000000  -0.000000
     10       0.000000  -0.106476   0.000000   0.000000   0.130230  -0.052760
     11       0.000000  -0.010084   0.000000   0.000000   0.051334  -0.083869
     12       0.114731   0.000000   0.023250  -0.009878  -0.000000   0.000000
     13      -0.000000   0.106476  -0.000000  -0.000000   0.130230   0.052760
     14       0.000000  -0.010084   0.000000   0.000000  -0.051334  -0.083869
     15      -0.506398  -0.000000   0.198269  -0.330251  -0.000000   0.000000
     16      -0.000000  -0.287707   0.000000   0.000000  -0.179715   0.181138
     17       0.000000   0.214198  -0.000000  -0.000000   0.118772  -0.165408
     18      -0.478935   0.000000  -0.200684   0.274883   0.000000  -0.000000
     19       0.000000   0.107380  -0.000000  -0.000000   0.133053   0.061912
     20      -0.000000  -0.560436   0.000000   0.000000  -0.472748  -0.003726
     21      -0.478935   0.000000   0.200685   0.274882  -0.000000   0.000000
     22       0.000000  -0.107380   0.000000   0.000000   0.133053  -0.061912
     23       0.000000  -0.560436   0.000000   0.000000   0.472748  -0.003726
     24      -0.506397  -0.000000  -0.198270  -0.330251   0.000000  -0.000000
     25      -0.000000   0.287707  -0.000000  -0.000000  -0.179715  -0.181138
     26      -0.000000   0.214198  -0.000000  -0.000000  -0.118772  -0.165408
     27      -0.002169  -0.000000  -0.639827  -0.558131   0.000000  -0.000000
     28      -0.000000   0.113439  -0.000000  -0.000000  -0.401748  -0.611275
     29      -0.000000   0.132190  -0.000000  -0.000000  -0.147008  -0.180058
                 18         19         20         21         22         23    
      0      -0.000000   0.000000  -0.000000  -0.000000   0.000000   0.000000
      1       0.034708  -0.029210  -0.057805  -0.083519  -0.093048   0.333050
      2       0.123438   0.114007   0.072647  -0.003014   0.143625  -0.079599
      3       0.000000  -0.000000   0.000000  -0.000000   0.000000  -0.000000
      4      -0.360227  -0.449232   0.333589   0.063640   0.395953  -0.227714
      5       0.357593   0.369755  -0.154618  -0.100919  -0.132583   0.268060
      6      -0.000000  -0.000000  -0.000000   0.000000  -0.000000  -0.000000
      7       0.034708   0.029210  -0.057805   0.083519  -0.093048  -0.333050
      8      -0.123438   0.114007  -0.072647  -0.003014  -0.143625  -0.079599
      9      -0.000000   0.000000   0.000000   0.000000  -0.000000   0.000000
     10      -0.029323  -0.005579   0.000758   0.018011   0.082823   0.103015
     11       0.115572  -0.124554  -0.026960   0.070148   0.128984   0.084334
     12       0.000000  -0.000000   0.000000  -0.000000   0.000000  -0.000000
     13      -0.029323   0.005579   0.000758  -0.018011   0.082823  -0.103015
     14      -0.115572  -0.124554   0.026960   0.070148  -0.128984   0.084334
     15       0.000000   0.000000   0.000000   0.000000   0.000000   0.000000
     16       0.318017   0.241227   0.333627   0.432051  -0.362538   0.415147
     17      -0.323773  -0.270205  -0.177627  -0.203777   0.121044  -0.217295
     18      -0.000000   0.000000  -0.000000   0.000000  -0.000000  -0.000000
     19      -0.021961   0.013886   0.012538  -0.007913   0.088423  -0.101262
     20       0.072529   0.026123  -0.460922  -0.495257   0.344900  -0.107187
     21       0.000000  -0.000000   0.000000   0.000000  -0.000000  -0.000000
     22      -0.021961  -0.013886   0.012538   0.007913   0.088423   0.101262
     23      -0.072529   0.026123   0.460922  -0.495257  -0.344900  -0.107187
     24       0.000000  -0.000000  -0.000000  -0.000000   0.000000  -0.000000
     25       0.318017  -0.241227   0.333627  -0.432051  -0.362538  -0.415147
     26       0.323773  -0.270205   0.177627  -0.203777  -0.121044  -0.217295
     27       0.000000   0.000000  -0.000000  -0.000000  -0.000000   0.000000
     28      -0.360227   0.449232   0.333589  -0.063640   0.395953   0.227714
     29      -0.357593   0.369755   0.154618  -0.100919   0.132583   0.268060
                 24         25         26         27         28         29    
      0       0.000000  -0.000000  -0.000000   0.000000  -0.000000   0.000000
      1      -0.003990   0.003973  -0.028752  -0.033641  -0.002656   0.002007
      2      -0.001145   0.003919  -0.051820  -0.052807  -0.003232   0.002665
      3      -0.000000  -0.000000   0.000000  -0.000000   0.000000  -0.000000
      4       0.029385  -0.039054   0.352001   0.354534   0.026394  -0.016956
      5       0.044952  -0.064921   0.605792   0.602698   0.047276  -0.031556
      6       0.000000  -0.000000   0.000000  -0.000000   0.000000   0.000000
      7      -0.003990  -0.003973  -0.028752   0.033641  -0.002656  -0.002007
      8       0.001145   0.003919   0.051820  -0.052807   0.003232   0.002665
      9       0.000000  -0.000000  -0.000000  -0.000000   0.000000  -0.000000
     10       0.034020   0.039426   0.000984   0.002548  -0.056170  -0.051788
     11       0.029780   0.024587  -0.006782   0.007125   0.043068   0.044779
     12      -0.000000   0.000000  -0.000000   0.000000  -0.000000  -0.000000
     13       0.034020  -0.039426   0.000984  -0.002548  -0.056170   0.051788
     14      -0.029780   0.024587   0.006782   0.007125  -0.043068   0.044779
     15       0.000000   0.000000   0.000000  -0.000000  -0.000000   0.000000
     16       0.200284  -0.180165  -0.037286  -0.036215   0.293929  -0.316740
     17       0.331222  -0.282496  -0.062449  -0.056506   0.510641  -0.536598
     18      -0.000000  -0.000000   0.000000  -0.000000   0.000000   0.000000
     19      -0.587500   0.616236   0.016159   0.050752   0.380630  -0.325190
     20      -0.008745   0.007742  -0.000547  -0.001854  -0.003656   0.002824
     21      -0.000000  -0.000000   0.000000   0.000000  -0.000000   0.000000
     22      -0.587500  -0.616236   0.016159  -0.050752   0.380630   0.325190
     23       0.008745   0.007742   0.000547  -0.001854   0.003656   0.002824
     24      -0.000000   0.000000   0.000000   0.000000   0.000000  -0.000000
     25       0.200284   0.180165  -0.037286   0.036215   0.293929   0.316740
     26      -0.331222  -0.282496   0.062449  -0.056507  -0.510641  -0.536598
     27      -0.000000   0.000000   0.000000  -0.000000   0.000000  -0.000000
     28       0.029385   0.039054   0.352001  -0.354534   0.026394   0.016956
     29      -0.044952  -0.064921  -0.605792   0.602698  -0.047276  -0.031556


-----------
IR SPECTRUM
-----------

 Mode    freq (cm**-1)   T**2         TX         TY         TZ
-------------------------------------------------------------------
   7:       444.57   13.460790  ( -3.668895   0.000000  -0.000000)
   8:       502.99    0.009211  (  0.000000  -0.000000   0.095972)
   9:       530.17    5.796801  ( -0.000000  -2.407655  -0.000000)
  10:       643.76    0.000000  (  0.000000   0.000000  -0.000000)
  11:       792.90    0.000000  ( -0.000004   0.000000  -0.000000)
  12:       806.19   74.697931  ( -8.642796  -0.000000   0.000000)
  13:       921.02    0.070452  ( -0.000000  -0.000000  -0.265428)
  14:       927.63    0.000000  ( -0.000004   0.000000   0.000000)
  15:       930.55   19.111415  ( -4.371660  -0.000000  -0.000000)
  16:      1066.87   13.411951  ( -0.000000  -3.662233   0.000000)
  17:      1087.74    0.701065  ( -0.000000   0.000000  -0.837296)
  18:      1217.06    0.568140  (  0.000000   0.753750   0.000000)
  19:      1250.74    0.070184  (  0.000000   0.000000   0.264923)
  20:      1379.12    5.677126  (  0.000000   2.382672  -0.000000)
  21:      1497.84   15.101061  ( -0.000000  -0.000000  -3.886008)
  22:      1526.84    0.084863  (  0.000000  -0.291312  -0.000000)
  23:      1581.64    0.607229  (  0.000000   0.000000  -0.779249)
  24:      3293.01    2.084501  ( -0.000000   1.443780   0.000000)
  25:      3301.84    4.713029  ( -0.000000   0.000000   2.170951)
  26:      3339.58   18.165280  (  0.000000  -4.262075  -0.000000)
  27:      3358.56   13.490461  ( -0.000000   0.000000  -3.672936)
  28:      3424.11    9.270425  (  0.000000  -3.044737  -0.000000)
  29:      3444.35    5.521593  (  0.000000  -0.000000   2.349807)

The first frequency considered to be a vibration is 7
The total number of vibrations considered is 23


--------------------------
THERMOCHEMISTRY AT 298.15K
--------------------------

Temperature         ... 298.15 K
Pressure            ... 1.00 atm
Total Mass          ... 54.09 AMU

Throughout the following assumptions are being made:
  (1) The electronic state is orbitally nondegenerate
  (2) There are no thermally accessible electronically excited states
  (3) Hindered rotations indicated by low frequency modes are not
      treated as such but are treated as vibrations and this may
      cause some error
  (4) All equations used are the standard statistical mechanics
      equations for an ideal gas
  (5) All vibrations are strictly harmonic

freq.     444.57  E(vib)   ...       0.17 
freq.     502.99  E(vib)   ...       0.14 
freq.     530.17  E(vib)   ...       0.13 
freq.     643.76  E(vib)   ...       0.09 
freq.     792.90  E(vib)   ...       0.05 
freq.     806.19  E(vib)   ...       0.05 
freq.     921.02  E(vib)   ...       0.03 
freq.     927.63  E(vib)   ...       0.03 
freq.     930.55  E(vib)   ...       0.03 
freq.    1066.87  E(vib)   ...       0.02 
freq.    1087.74  E(vib)   ...       0.02 
freq.    1217.06  E(vib)   ...       0.01 
freq.    1250.74  E(vib)   ...       0.01 
freq.    1379.12  E(vib)   ...       0.01 
freq.    1497.84  E(vib)   ...       0.00 
freq.    1526.84  E(vib)   ...       0.00 
freq.    1581.64  E(vib)   ...       0.00 
freq.    3293.01  E(vib)   ...       0.00 
freq.    3301.84  E(vib)   ...       0.00 
freq.    3339.58  E(vib)   ...       0.00 
freq.    3358.56  E(vib)   ...       0.00 
freq.    3424.11  E(vib)   ...       0.00 
freq.    3444.35  E(vib)   ...       0.00 

------------
INNER ENERGY
------------

The inner energy is: U= E(el) + E(ZPE) + E(vib) + E(rot) + E(trans)
    E(el)   - is the total energy from the electronic structure calculation
              = E(kin-el) + E(nuc-el) + E(el-el) + E(nuc-nuc)
    E(ZPE)  - the the zero temperature vibrational energy from the frequency calculation
    E(vib)  - the the finite temperature correction to E(ZPE) due to population
              of excited vibrational states
    E(rot)  - is the rotational thermal energy
    E(trans)- is the translational thermal energy

Summary of contributions to the inner energy U:
Electronic energy                ...   -155.86235852 Eh
Zero point energy                ...      0.08490521 Eh      53.28 kcal/mol
Thermal vibrational correction   ...      0.00123915 Eh       0.78 kcal/mol
Thermal rotational correction    ...      0.00141627 Eh       0.89 kcal/mol
Thermal translational correction ...      0.00141627 Eh       0.89 kcal/mol
-----------------------------------------------------------------------
Total thermal energy                   -155.77338161 Eh


Summary of corrections to the electronic energy:
(perhaps to be used in another calculation)
Total thermal correction                  0.00407169 Eh       2.56 kcal/mol
Non-thermal (ZPE) correction              0.08490521 Eh      53.28 kcal/mol
-----------------------------------------------------------------------
Total correction                          0.08897691 Eh      55.83 kcal/mol


--------
ENTHALPY
--------

The enthalpy is H = U + kB*T
                kB is Boltzmann's constant
Total free energy                 ...   -155.77338161 Eh 
Thermal Enthalpy correction       ...      0.00094421 Eh       0.59 kcal/mol
-----------------------------------------------------------------------
Total Enthalpy                    ...   -155.77243740 Eh


Note: Rotational entropy computed according to Herzberg 
Infrared and Raman Spectra, Chapter V,1, Van Nostrand Reinhold, 1945 
Point Group:  C2v, Symmetry Number:   2  
Rotational constants in cm-1:     0.604491     0.222282     0.162520 

Vibrational entropy computed according to the QRRHO of S. Grimme
Chem.Eur.J. 2012 18 9955


-------
ENTROPY
-------

The entropy contributions are T*S = T*(S(el)+S(vib)+S(rot)+S(trans))
     S(el)   - electronic entropy
     S(vib)  - vibrational entropy
     S(rot)  - rotational entropy
     S(trans)- translational entropy
The entropies will be listed as mutliplied by the temperature to get
units of energy

Electronic entropy                ...      0.00000000 Eh      0.00 kcal/mol
Vibrational entropy               ...      0.00165644 Eh      1.04 kcal/mol
Rotational entropy                ...      0.01066169 Eh      6.69 kcal/mol
Translational entropy             ...      0.01800097 Eh     11.30 kcal/mol
-----------------------------------------------------------------------
Final entropy term                ...      0.03031909 Eh     19.03 kcal/mol


-------------------
GIBBS FREE ENTHALPY
-------------------

The Gibbs free enthalpy is G = H - T*S

Total enthalpy                    ...   -155.77243740 Eh 
Total entropy correction          ...     -0.03031909 Eh    -19.03 kcal/mol
-----------------------------------------------------------------------
Final Gibbs free enthalpy         ...   -155.80275649 Eh

For completeness - the Gibbs free enthalpy minus the electronic energy
G-E(el)                           ...      0.05960203 Eh     37.40 kcal/mol

Actual Hessian File stored as 02_butadiene_opt.001.hess
------------------------------------------------------------------------------
                         ORCA GEOMETRY RELAXATION STEP
------------------------------------------------------------------------------

Reading the OPT-File                    .... done
Getting information on internals        .... done
Copying old internal coords+grads       .... done
Making the new internal coordinates     .... (new redundants).... done
Validating the new internal coordinates .... (new redundants).... done
Calculating the B-matrix                .... done
Calculating the G,G- and P matrices     .... done
Transforming gradient to internals      .... done
Projecting the internal gradient        .... done
Number of atoms                         ....  10
Number of internal coordinates          ....  33
Current Energy                          ....  -155.862358520 Eh
Current gradient norm                   ....     0.161510750 Eh/bohr
Maximum allowed component of the step   ....  0.300
Current trust radius                    ....  0.300
Evaluating the initial hessian          ....  (read) 
(Reading Exact Hessian)...  
InHessName: 02_butadiene_opt.hess	The file <02_butadiene_opt.hess> is opened as a .hess file
done
done
Diagonalizing the Hessian               .... done
Dimension of the hessian                .... 33
Lowest eigenvalues of the non projected Hessian:
 -0.021312998 -0.000006304 -0.000003057 -0.000001493 -0.000001414
done
Projecting the Hessian                  .... done
Forming the augmented Hessian           .... done
Diagonalizing the augmented Hessian     .... done
Last element of RFO vector              ....  0.963402563
Lowest eigenvalues of augmented Hessian:
 -0.033689239 -0.021312997  0.016887283  0.023933392  0.024700907
Length of the computed step             ....  0.278241699
The final length of the internal step   ....  0.278241699
Converting the step to cartesian space:
 Initial RMS(Int)=    0.0484356627
Transforming coordinates:
 Iter   0:  RMS(Cart)=    0.1130831809 RMS(Int)=    2.4462015990
 Iter   1:  RMS(Cart)=    0.0048246839 RMS(Int)=    0.0036256568
 Iter   2:  RMS(Cart)=    0.0002135720 RMS(Int)=    0.0002258581
 Iter   3:  RMS(Cart)=    0.0000201125 RMS(Int)=    0.0000227605
 Iter   4:  RMS(Cart)=    0.0000020688 RMS(Int)=    0.0000019941
 Iter   5:  RMS(Cart)=    0.0000002190 RMS(Int)=    0.0000001735
 Iter   6:  RMS(Cart)=    0.0000000189 RMS(Int)=    0.0000000182
done
Storing new coordinates                 .... done

                                .--------------------.
          ----------------------|Geometry convergence|-------------------------
          Item                value                   Tolerance       Converged
          ---------------------------------------------------------------------
          RMS gradient        0.0234144180            0.0001000000      NO
          MAX gradient        0.0699370606            0.0003000000      NO
          RMS step            0.0484356627            0.0020000000      NO
          MAX step            0.1356052699            0.0040000000      NO
          ........................................................
          Max(Bonds)      0.0718      Max(Angles)    3.80
          Max(Dihed)        0.00      Max(Improp)    0.00
          ---------------------------------------------------------------------

The optimization has not yet converged - more geometry cycles are needed


    ---------------------------------------------------------------------------
                         Redundant Internal Coordinates
                            (Angstroem and degrees)

        Definition                    Value    dE/dq     Step     New-Value
    ----------------------------------------------------------------------------
     1. B(H   1,C   0)                1.0700 -0.012306  0.0164    1.0864   
     2. B(C   2,C   0)                1.3979 -0.069937  0.0605    1.4584   
     3. B(C   3,C   2)                1.4026  0.046573 -0.0718    1.3308   
     4. B(C   4,C   0)                1.4026  0.046573 -0.0718    1.3308   
     5. B(H   5,C   4)                1.0661 -0.008427  0.0179    1.0841   
     6. B(H   6,C   4)                1.0727 -0.008498  0.0117    1.0844   
     7. B(H   7,C   3)                1.0727 -0.008498  0.0117    1.0844   
     8. B(H   8,C   3)                1.0661 -0.008427  0.0179    1.0841   
     9. B(H   9,C   2)                1.0700 -0.012306  0.0164    1.0864   
    10. A(H   1,C   0,C   4)          120.04  0.027753   -0.86    119.18   
    11. A(H   1,C   0,C   2)          119.91  0.023903   -2.93    116.98   
    12. A(C   2,C   0,C   4)          120.05 -0.051657    3.80    123.84   
    13. A(C   0,C   2,H   9)          119.91  0.023903   -2.93    116.98   
    14. A(C   3,C   2,H   9)          120.04  0.027753   -0.86    119.18   
    15. A(C   0,C   2,C   3)          120.05 -0.051657    3.80    123.84   
    16. A(H   7,C   3,H   8)          120.11  0.007467   -2.93    117.18   
    17. A(C   2,C   3,H   8)          120.20 -0.008364    1.74    121.94   
    18. A(C   2,C   3,H   7)          119.69  0.000897    1.19    120.88   
    19. A(H   5,C   4,H   6)          120.11  0.007467   -2.93    117.18   
    20. A(C   0,C   4,H   6)          119.69  0.000897    1.19    120.88   
    21. A(C   0,C   4,H   5)          120.20 -0.008364    1.74    121.94   
    22. D(C   3,C   2,C   0,C   4)      0.00 -0.000000    0.00      0.00   
    23. D(H   9,C   2,C   0,H   1)      0.00 -0.000000    0.00      0.00   
    24. D(C   3,C   2,C   0,H   1)    180.00 -0.000000    0.00    180.00   
    25. D(H   9,C   2,C   0,C   4)    180.00  0.000000    0.00    180.00   
    26. D(H   7,C   3,C   2,H   9)      0.00  0.000000   -0.00     -0.00   
    27. D(H   8,C   3,C   2,C   0)      0.00  0.000000   -0.00     -0.00   
    28. D(H   7,C   3,C   2,C   0)    180.00  0.000000   -0.00    180.00   
    29. D(H   8,C   3,C   2,H   9)    180.00  0.000000    0.00    180.00   
    30. D(H   6,C   4,C   0,C   2)    180.00 -0.000000    0.00    180.00   
    31. D(H   6,C   4,C   0,H   1)      0.00 -0.000000    0.00      0.00   
    32. D(H   5,C   4,C   0,C   2)      0.00 -0.000000    0.00      0.00   
    33. D(H   5,C   4,C   0,H   1)    180.00 -0.000000    0.00    180.00   
    ----------------------------------------------------------------------------

         *************************************************************
         *                GEOMETRY OPTIMIZATION CYCLE   2            *
         *************************************************************
---------------------------------
CARTESIAN COORDINATES (ANGSTROEM)
---------------------------------
  C     -0.000000   -0.729202   -0.575916
  H      0.000000   -1.222063   -1.544043
  C     -0.000000    0.729195   -0.575912
  C      0.000000    1.470352    0.529440
  C     -0.000000   -1.470356    0.529436
  H     -0.000000   -1.025626    1.518087
  H      0.000000   -2.553288    0.473451
  H      0.000000    2.553282    0.473438
  H      0.000000    1.025637    1.518098
  H     -0.000000    1.222070   -1.544029

----------------------------
CARTESIAN COORDINATES (A.U.)
----------------------------
  NO LB      ZA    FRAG     MASS         X           Y           Z
   0 C     6.0000    0    12.011   -0.000000   -1.377992   -1.088324
   1 H     1.0000    0     1.008    0.000000   -2.309364   -2.917819
   2 C     6.0000    0    12.011   -0.000000    1.377979   -1.088315
   3 C     6.0000    0    12.011    0.000000    2.778562    1.000496
   4 C     6.0000    0    12.011   -0.000000   -2.778570    1.000489
   5 H     1.0000    0     1.008   -0.000000   -1.938153    2.868768
   6 H     1.0000    0     1.008    0.000000   -4.825015    0.894693
   7 H     1.0000    0     1.008    0.000000    4.825004    0.894669
   8 H     1.0000    0     1.008    0.000000    1.938172    2.868789
   9 H     1.0000    0     1.008   -0.000000    2.309377   -2.917792

--------------------------------
INTERNAL COORDINATES (ANGSTROEM)
--------------------------------
 C      0   0   0     0.000000000000     0.00000000     0.00000000
 H      1   0   0     1.086362209501     0.00000000     0.00000000
 C      1   2   0     1.458397012505   116.98022632     0.00000000
 C      3   1   2     1.330832361337   123.84269608   180.00000000
 C      1   2   3     1.330831395212   119.17752448   180.00000000
 H      5   1   2     1.084073600321   121.93768758   180.00000121
 H      5   1   2     1.084378036040   120.88303121     0.00000000
 H      4   3   1     1.084377065910   120.88224069   179.99999915
 H      4   3   1     1.084073924304   121.93844784     0.00000000
 H      3   1   2     1.086359413553   116.98075922     0.00000000

---------------------------
INTERNAL COORDINATES (A.U.)
---------------------------
 C      0   0   0     0.000000000000     0.00000000     0.00000000
 H      1   0   0     2.052927058198     0.00000000     0.00000000
 C      1   2   0     2.755970948164   116.98022632     0.00000000
 C      3   1   2     2.514908693086   123.84269608   180.00000000
 C      1   2   3     2.514906867375   119.17752448   180.00000000
 H      5   1   2     2.048602213620   121.93768758   180.00000121
 H      5   1   2     2.049177513755   120.88303121     0.00000000
 H      4   3   1     2.049175680475   120.88224069   179.99999915
 H      4   3   1     2.048602825860   121.93844784     0.00000000
 H      3   1   2     2.052921774622   116.98075922     0.00000000



           ************************************************************
           *        Program running with 4 parallel MPI-processes     *
           *              working on a common directory               *
           ************************************************************


           ************************************************************
           *        Program running with 4 parallel MPI-processes     *
           *              working on a common directory               *
           ************************************************************

Diagonalization of the overlap matrix:
Smallest eigenvalue                        ... 2.489e-03
Time for diagonalization                   ...    0.001 sec
Threshold for overlap eigenvalues          ... 1.000e-08
Number of eigenvalues below threshold      ... 0
Time for construction of square roots      ...    0.001 sec
Total time needed                          ...    0.002 sec

-------------------
DFT GRID GENERATION
-------------------

General Integration Accuracy     IntAcc      ...  4.340
Radial Grid Type                 RadialGrid  ... Gauss-Chebyshev
Angular Grid (max. acc.)         AngularGrid ... Lebedev-110
Angular grid pruning method      GridPruning ... 3 (G Style)
Weight generation scheme         WeightScheme... Becke
Basis function cutoff            BFCut       ...    1.0000e-11
Integration weight cutoff        WCut        ...    1.0000e-14
Grids for H and He will be reduced by one unit

# of grid points (after initial pruning)     ...  11388 (   0.0 sec)
# of grid points (after weights+screening)   ...  10802 (   0.0 sec)
nearest neighbour list constructed           ...    0.0 sec
Grid point re-assignment to atoms done       ...    0.0 sec
Grid point division into batches done        ...    0.0 sec
Reduced shell lists constructed in    0.0 sec

Total number of grid points                  ...    10802
Total number of batches                      ...      174
Average number of points per batch           ...       62
Average number of grid points per atom       ...     1080
Average number of shells per batch           ...    34.91 (83.12%)
Average number of basis functions per batch  ...    71.62 (83.28%)
Average number of large shells per batch     ...    29.60 (84.79%)
Average number of large basis fcns per batch ...    60.93 (85.08%)
Maximum spatial batch extension              ...  25.60, 13.63, 15.22 au
Average spatial batch extension              ...   1.27,  0.76,  0.81 au

Time for grid setup =    0.055 sec

--------------
SCF ITERATIONS
--------------
ITER       Energy         Delta-E        Max-DP      RMS-DP      [F,P]     Damp
               ***  Starting incremental Fock matrix formation  ***
  0   -155.8704951354   0.000000000000 0.00527230  0.00047053  0.0283007 0.7000
  1   -155.8729577204  -0.002462584963 0.00527110  0.00039900  0.0220314 0.7000
                               ***Turning on DIIS***
  2   -155.8747898354  -0.001832115027 0.01498735  0.00099319  0.0163378 0.0000
                      *** Initiating the SOSCF procedure ***
                           *** Shutting down DIIS ***
                      *** Re-Reading the Fockian *** 
                      *** Removing any level shift *** 
ITER      Energy       Delta-E        Grad      Rot      Max-DP    RMS-DP
  3   -155.87922164  -0.0044318082  0.001910  0.001910  0.002353  0.000152
               *** Restarting incremental Fock matrix formation ***
  4   -155.87928473  -0.0000630883  0.001354  0.004654  0.002867  0.000121
  5   -155.87928033   0.0000044048  0.001557  0.002300  0.001822  0.000082
  6   -155.87930213  -0.0000218068  0.000287  0.000640  0.000630  0.000039
  7   -155.87930207   0.0000000608  0.000279  0.000214  0.000311  0.000020
[...]
  26:      3155.69 cm**-1
  27:      3165.06 cm**-1
  28:      3238.99 cm**-1
  29:      3242.11 cm**-1


------------
NORMAL MODES
------------

These modes are the Cartesian displacements weighted by the diagonal matrix
M(i,i)=1/sqrt(m[i]) where m[i] is the mass of the displaced atom
Thus, these vectors are normalized but *not* orthogonal

                  0          1          2          3          4          5    
      0       0.000000   0.000000   0.000000   0.000000   0.000000   0.000000
      1       0.000000   0.000000   0.000000   0.000000   0.000000   0.000000
      2       0.000000   0.000000   0.000000   0.000000   0.000000   0.000000
      3       0.000000   0.000000   0.000000   0.000000   0.000000   0.000000
      4       0.000000   0.000000   0.000000   0.000000   0.000000   0.000000
      5       0.000000   0.000000   0.000000   0.000000   0.000000   0.000000
      6       0.000000   0.000000   0.000000   0.000000   0.000000   0.000000
      7       0.000000   0.000000   0.000000   0.000000   0.000000   0.000000
      8       0.000000   0.000000   0.000000   0.000000   0.000000   0.000000
      9       0.000000   0.000000   0.000000   0.000000   0.000000   0.000000
     10       0.000000   0.000000   0.000000   0.000000   0.000000   0.000000
     11       0.000000   0.000000   0.000000   0.000000   0.000000   0.000000
     12       0.000000   0.000000   0.000000   0.000000   0.000000   0.000000
     13       0.000000   0.000000   0.000000   0.000000   0.000000   0.000000
     14       0.000000   0.000000   0.000000   0.000000   0.000000   0.000000
     15       0.000000   0.000000   0.000000   0.000000   0.000000   0.000000
     16       0.000000   0.000000   0.000000   0.000000   0.000000   0.000000
     17       0.000000   0.000000   0.000000   0.000000   0.000000   0.000000
     18       0.000000   0.000000   0.000000   0.000000   0.000000   0.000000
     19       0.000000   0.000000   0.000000   0.000000   0.000000   0.000000
     20       0.000000   0.000000   0.000000   0.000000   0.000000   0.000000
     21       0.000000   0.000000   0.000000   0.000000   0.000000   0.000000
     22       0.000000   0.000000   0.000000   0.000000   0.000000   0.000000
     23       0.000000   0.000000   0.000000   0.000000   0.000000   0.000000
     24       0.000000   0.000000   0.000000   0.000000   0.000000   0.000000
     25       0.000000   0.000000   0.000000   0.000000   0.000000   0.000000
     26       0.000000   0.000000   0.000000   0.000000   0.000000   0.000000
     27       0.000000   0.000000   0.000000   0.000000   0.000000   0.000000
     28       0.000000   0.000000   0.000000   0.000000   0.000000   0.000000
     29       0.000000   0.000000   0.000000   0.000000   0.000000   0.000000
                  6          7          8          9         10         11    
      0      -0.116143   0.000000   0.081738  -0.000000   0.182183   0.000000
      1      -0.000000  -0.004028  -0.000000  -0.113223   0.000000  -0.159505
      2      -0.000000   0.097627  -0.000000  -0.166158  -0.000000  -0.056596
      3      -0.459847   0.000000  -0.314465   0.000000  -0.064164  -0.000000
      4       0.000000   0.119978  -0.000000  -0.015984  -0.000000  -0.117309
      5      -0.000000   0.037101  -0.000000  -0.207454   0.000000  -0.084399
      6       0.116143  -0.000000   0.081738  -0.000000  -0.182183  -0.000000
      7      -0.000000   0.004028  -0.000000  -0.113223  -0.000000   0.159505
      8       0.000000   0.097627   0.000000   0.166158   0.000000  -0.056596
      9      -0.076693   0.000000  -0.037649   0.000000   0.010328   0.000000
     10       0.000000   0.235691   0.000000   0.071407  -0.000000   0.140712
     11       0.000000  -0.072794   0.000000   0.052463  -0.000000   0.028283
     12       0.076693  -0.000000  -0.037649   0.000000  -0.010328  -0.000000
     13       0.000000  -0.235691   0.000000   0.071407   0.000000  -0.140712
     14      -0.000000  -0.072794  -0.000000  -0.052463   0.000000   0.028283
     15       0.493416  -0.000000   0.325124  -0.000000   0.267037   0.000000
     16       0.000000  -0.492467   0.000000   0.484025   0.000000   0.283176
     17       0.000000   0.024438   0.000000  -0.205884   0.000000  -0.121490
     18      -0.160346   0.000000  -0.536011   0.000000  -0.625521   0.000000
     19      -0.000000  -0.207242  -0.000000   0.030231  -0.000000  -0.199502
     20      -0.000000  -0.357439  -0.000000   0.361727  -0.000000   0.543251
     21       0.160346   0.000000  -0.536011   0.000000   0.625521   0.000000
     22      -0.000000   0.207242   0.000000   0.030231  -0.000000   0.199502
     23      -0.000000  -0.357439  -0.000000  -0.361727  -0.000000   0.543250
     24      -0.493416  -0.000000   0.325124   0.000000  -0.267037  -0.000000
     25       0.000000   0.492467   0.000000   0.484025   0.000000  -0.283176
     26       0.000000   0.024438   0.000000   0.205884   0.000000  -0.121490
     27       0.459847   0.000000  -0.314465  -0.000000   0.064164   0.000000
     28      -0.000000  -0.119978   0.000000  -0.015984   0.000000   0.117309
     29       0.000000   0.037101  -0.000000   0.207454   0.000000  -0.084399
                 12         13         14         15         16         17    
      0       0.057691   0.040916   0.061052  -0.073520   0.000000   0.000000
      1       0.000000   0.000000   0.000000  -0.000000  -0.094869  -0.084876
      2       0.000000   0.000000  -0.000000  -0.000000  -0.077138  -0.074589
      3      -0.012458  -0.038546  -0.564749   0.610213  -0.000000   0.000000
      4       0.000000   0.000000   0.000000  -0.000000  -0.486201  -0.294032
      5       0.000000   0.000000  -0.000000   0.000000   0.099226   0.026642
      6      -0.057691   0.040916   0.061055   0.073517  -0.000000  -0.000000
      7      -0.000000  -0.000000  -0.000000   0.000000   0.094869  -0.084876
      8       0.000000   0.000000   0.000000  -0.000000  -0.077138   0.074589
      9       0.124323  -0.120114  -0.003685  -0.004776   0.000000   0.000000
     10      -0.000000  -0.000000   0.000000   0.000000  -0.019962   0.120829
     11      -0.000000  -0.000000  -0.000000   0.000000   0.072626  -0.018594
     12      -0.124323  -0.120114  -0.003685   0.004776  -0.000000  -0.000000
     13      -0.000000  -0.000000   0.000000   0.000000   0.019962   0.120829
     14      -0.000000  -0.000000  -0.000000   0.000000   0.072626   0.018594
     15       0.526996   0.488465  -0.351167   0.290368  -0.000000   0.000000
     16       0.000000   0.000000  -0.000000  -0.000000  -0.350077  -0.307949
     17      -0.000000  -0.000000  -0.000000   0.000000   0.209013   0.167292
     18       0.450927   0.493776   0.232342  -0.194722   0.000000   0.000000
     19       0.000000   0.000000   0.000000  -0.000000   0.046235   0.173584
     20      -0.000000  -0.000000   0.000000  -0.000000  -0.254481  -0.481842
     21      -0.450927   0.493776   0.232348   0.194714  -0.000000  -0.000000
     22      -0.000000  -0.000000  -0.000000   0.000000  -0.046235   0.173584
     23      -0.000000  -0.000000   0.000000  -0.000000  -0.254481   0.481842
     24      -0.526997   0.488465  -0.351177  -0.290356   0.000000   0.000000
     25       0.000000   0.000000  -0.000000   0.000000   0.350078  -0.307949
     26       0.000000   0.000000  -0.000000   0.000000   0.209013  -0.167292
     27       0.012458  -0.038546  -0.564769  -0.610193   0.000000   0.000000
     28      -0.000000  -0.000000  -0.000000   0.000000   0.486201  -0.294032
     29       0.000000   0.000000  -0.000000  -0.000000   0.099226  -0.026642
                 18         19         20         21         22         23    
      0       0.000000  -0.000000   0.000000   0.000000   0.000000  -0.000000
      1       0.016203   0.022735  -0.049928  -0.104021  -0.249780   0.161688
      2       0.062085   0.070520   0.054200   0.028860   0.168362  -0.208886
      3      -0.000000  -0.000000  -0.000000   0.000000  -0.000000   0.000000
      4      -0.521299  -0.513052   0.274055   0.177641   0.177451  -0.407854
      5       0.313687   0.328650  -0.093530  -0.104972  -0.005055   0.025032
      6       0.000000  -0.000000   0.000000   0.000000   0.000000   0.000000
      7       0.016204  -0.022735  -0.049928   0.104021   0.249779   0.161688
      8      -0.062085   0.070520  -0.054200   0.028860   0.168361   0.208886
      9      -0.000000   0.000000  -0.000000  -0.000000  -0.000000  -0.000000
     10       0.003735   0.008102  -0.011554  -0.001809  -0.170851  -0.144537
     11       0.088198  -0.077280  -0.030807   0.034270  -0.194502  -0.184128
     12       0.000000   0.000000   0.000000   0.000000  -0.000000   0.000000
     13       0.003735  -0.008102  -0.011554   0.001809   0.170851  -0.144536
     14      -0.088198  -0.077280   0.030807   0.034270  -0.194502   0.184127
     15      -0.000000  -0.000000  -0.000000  -0.000000   0.000000  -0.000000
     16       0.271347   0.278539   0.403169   0.386614  -0.445600   0.326990
     17      -0.194703  -0.190675  -0.139159  -0.123200   0.010976   0.038172
     18      -0.000000  -0.000000  -0.000000  -0.000000   0.000000   0.000000
     19       0.012371   0.000315   0.055376   0.072827   0.136689  -0.123507
     20      -0.079031  -0.057430  -0.473979  -0.524062   0.305559  -0.291245
     21       0.000000  -0.000000  -0.000000  -0.000000  -0.000000  -0.000000
     22       0.012371  -0.000315   0.055376  -0.072827  -0.136689  -0.123507
     23       0.079031  -0.057430   0.473979  -0.524062   0.305558   0.291246
     24       0.000000  -0.000000   0.000000  -0.000000   0.000000   0.000000
     25       0.271347  -0.278539   0.403169  -0.386614   0.445599   0.326991
     26       0.194703  -0.190675   0.139159  -0.123200   0.010976  -0.038172
     27      -0.000000   0.000000   0.000000   0.000000   0.000000  -0.000000
     28      -0.521299   0.513052   0.274055  -0.177640  -0.177449  -0.407855
     29      -0.313687   0.328650   0.093530  -0.104972  -0.005055  -0.025032
                 24         25         26         27         28         29    
      0       0.000000   0.000000   0.000000  -0.000000  -0.000000   0.000000
      1       0.022747  -0.016789  -0.001132  -0.018130  -0.002496   0.003611
      2       0.052369  -0.029901  -0.017276  -0.046683  -0.007039   0.007570
      3      -0.000000   0.000000  -0.000000   0.000000  -0.000000  -0.000000
      4      -0.284659   0.176082   0.063598   0.237075   0.031601  -0.035382
      5      -0.617533   0.375201   0.146714   0.505344   0.070297  -0.077007
      6       0.000000   0.000000   0.000000   0.000000  -0.000000  -0.000000
      7       0.022747   0.016789  -0.001132   0.018130  -0.002496  -0.003611
      8      -0.052369  -0.029901   0.017276  -0.046684   0.007039   0.007570
      9       0.000000  -0.000000  -0.000000   0.000000  -0.000000  -0.000000
     10      -0.009886  -0.023349  -0.022919   0.011691  -0.058051  -0.057453
     11      -0.003882  -0.028265  -0.042528   0.030456   0.038409   0.039318
     12       0.000000  -0.000000   0.000000   0.000000   0.000000  -0.000000
     13      -0.009886   0.023349  -0.022919  -0.011691  -0.058052   0.057453
     14       0.003882  -0.028264   0.042529   0.030456  -0.038409   0.039318
     15       0.000000  -0.000000   0.000000   0.000000  -0.000000   0.000000
     16      -0.032348   0.145866  -0.196050  -0.131985   0.150508  -0.154276
     17      -0.077347   0.370117  -0.504658  -0.340581   0.415544  -0.428110
     18      -0.000000   0.000000  -0.000000  -0.000000  -0.000000   0.000000
     19       0.163762  -0.405828   0.419034   0.224972   0.539357  -0.527208
     20       0.020277  -0.052242   0.055658   0.028597   0.054092  -0.053577
     21       0.000000   0.000000   0.000000  -0.000000   0.000000   0.000000
     22       0.163759   0.405836   0.419028  -0.224973   0.539354   0.527211
     23      -0.020277  -0.052243  -0.055658   0.028598  -0.054091  -0.053578
     24      -0.000000  -0.000000  -0.000000   0.000000   0.000000   0.000000
     25      -0.032347  -0.145869  -0.196048   0.131986   0.150507   0.154277
     26       0.077345   0.370124   0.504652  -0.340583  -0.415542  -0.428113
     27      -0.000000  -0.000000   0.000000  -0.000000   0.000000   0.000000
     28      -0.284655  -0.176085   0.063599  -0.237078   0.031601   0.035382
     29       0.617523   0.375208  -0.146715   0.505351  -0.070297  -0.077008


-----------
IR SPECTRUM
-----------

 Mode    freq (cm**-1)   T**2         TX         TY         TZ
-------------------------------------------------------------------
   7:       294.18    0.020538  ( -0.000000  -0.000000   0.143309)
   8:       517.66   10.738473  ( -3.276961  -0.000001   0.000000)
   9:       566.73    5.165528  (  0.000000  -2.272780  -0.000000)
  10:       746.90    0.000000  ( -0.000000  -0.000000   0.000000)
  11:       885.51    0.043897  (  0.000000  -0.000000   0.209515)
  12:       928.12    0.000000  ( -0.000002   0.000000  -0.000000)
  13:       930.55   66.451388  (  8.151772   0.000000  -0.000000)
  14:      1035.72   24.279750  ( -4.927449   0.000000  -0.000000)
  15:      1037.63    0.000000  (  0.000084  -0.000000  -0.000000)
  16:      1067.47    0.029297  ( -0.000000   0.000001   0.171165)
  17:      1114.25    9.732213  (  0.000000  -3.119650  -0.000000)
  18:      1321.27    0.322979  ( -0.000000   0.568312   0.000000)
  19:      1364.13    0.521379  ( -0.000000  -0.000000  -0.722066)
  20:      1447.26    3.175388  ( -0.000000   1.781962   0.000000)
  21:      1475.72    7.247463  ( -0.000000   0.000000  -2.692111)
  22:      1684.97    1.800589  ( -0.000000  -0.000001   1.341860)
  23:      1717.80    0.888720  (  0.000000   0.942719   0.000002)
  24:      3142.95   11.409544  (  0.000000   3.377802   0.000051)
  25:      3153.91   32.335518  ( -0.000000   0.000009  -5.686433)
  26:      3155.69    4.796859  ( -0.000000  -2.190173   0.000028)
  27:      3165.06    4.865577  ( -0.000000   0.000022  -2.205805)
  28:      3238.99   16.939463  ( -0.000000  -4.115758  -0.000010)
  29:      3242.11   10.957610  ( -0.000000  -0.000014   3.310228)

The first frequency considered to be a vibration is 7
The total number of vibrations considered is 23


--------------------------
THERMOCHEMISTRY AT 298.15K
--------------------------

Temperature         ... 298.15 K
Pressure            ... 1.00 atm
Total Mass          ... 54.09 AMU

Throughout the following assumptions are being made:
  (1) The electronic state is orbitally nondegenerate
  (2) There are no thermally accessible electronically excited states
  (3) Hindered rotations indicated by low frequency modes are not
      treated as such but are treated as vibrations and this may
      cause some error
  (4) All equations used are the standard statistical mechanics
      equations for an ideal gas
  (5) All vibrations are strictly harmonic

freq.     294.18  E(vib)   ...       0.27 
freq.     517.66  E(vib)   ...       0.13 
freq.     566.73  E(vib)   ...       0.11 
freq.     746.90  E(vib)   ...       0.06 
freq.     885.51  E(vib)   ...       0.04 
freq.     928.12  E(vib)   ...       0.03 
freq.     930.55  E(vib)   ...       0.03 
freq.    1035.72  E(vib)   ...       0.02 
freq.    1037.63  E(vib)   ...       0.02 
freq.    1067.47  E(vib)   ...       0.02 
freq.    1114.25  E(vib)   ...       0.01 
freq.    1321.27  E(vib)   ...       0.01 
freq.    1364.13  E(vib)   ...       0.01 
freq.    1447.26  E(vib)   ...       0.00 
freq.    1475.72  E(vib)   ...       0.00 
freq.    1684.97  E(vib)   ...       0.00 
freq.    1717.80  E(vib)   ...       0.00 
freq.    3142.95  E(vib)   ...       0.00 
freq.    3153.91  E(vib)   ...       0.00 
freq.    3155.69  E(vib)   ...       0.00 
freq.    3165.06  E(vib)   ...       0.00 
freq.    3238.99  E(vib)   ...       0.00 
freq.    3242.11  E(vib)   ...       0.00 

------------
INNER ENERGY
------------

The inner energy is: U= E(el) + E(ZPE) + E(vib) + E(rot) + E(trans)
    E(el)   - is the total energy from the electronic structure calculation
              = E(kin-el) + E(nuc-el) + E(el-el) + E(nuc-nuc)
    E(ZPE)  - the the zero temperature vibrational energy from the frequency calculation
    E(vib)  - the the finite temperature correction to E(ZPE) due to population
              of excited vibrational states
    E(rot)  - is the rotational thermal energy
    E(trans)- is the translational thermal energy

Summary of contributions to the inner energy U:
Electronic energy                ...   -155.88231995 Eh
Zero point energy                ...      0.08482662 Eh      53.23 kcal/mol
Thermal vibrational correction   ...      0.00121749 Eh       0.76 kcal/mol
Thermal rotational correction    ...      0.00141627 Eh       0.89 kcal/mol
Thermal translational correction ...      0.00141627 Eh       0.89 kcal/mol
-----------------------------------------------------------------------
Total thermal energy                   -155.79344330 Eh


Summary of corrections to the electronic energy:
(perhaps to be used in another calculation)
Total thermal correction                  0.00405003 Eh       2.54 kcal/mol
Non-thermal (ZPE) correction              0.08482662 Eh      53.23 kcal/mol
-----------------------------------------------------------------------
Total correction                          0.08887665 Eh      55.77 kcal/mol


--------
ENTHALPY
--------

The enthalpy is H = U + kB*T
                kB is Boltzmann's constant
Total free energy                 ...   -155.79344330 Eh 
Thermal Enthalpy correction       ...      0.00094421 Eh       0.59 kcal/mol
-----------------------------------------------------------------------
Total Enthalpy                    ...   -155.79249909 Eh


Note: Rotational entropy computed according to Herzberg 
Infrared and Raman Spectra, Chapter V,1, Van Nostrand Reinhold, 1945 
Point Group:  C2v, Symmetry Number:   2  
Rotational constants in cm-1:     0.716228     0.187406     0.148539 

Vibrational entropy computed according to the QRRHO of S. Grimme
Chem.Eur.J. 2012 18 9955


-------
ENTROPY
-------

The entropy contributions are T*S = T*(S(el)+S(vib)+S(rot)+S(trans))
     S(el)   - electronic entropy
     S(vib)  - vibrational entropy
     S(rot)  - rotational entropy
     S(trans)- translational entropy
The entropies will be listed as mutliplied by the temperature to get
units of energy

Electronic entropy                ...      0.00000000 Eh      0.00 kcal/mol
Vibrational entropy               ...      0.00171467 Eh      1.08 kcal/mol
Rotational entropy                ...      0.01070466 Eh      6.72 kcal/mol
Translational entropy             ...      0.01800097 Eh     11.30 kcal/mol
-----------------------------------------------------------------------
Final entropy term                ...      0.03042029 Eh     19.09 kcal/mol


-------------------
GIBBS FREE ENTHALPY
-------------------

The Gibbs free enthalpy is G = H - T*S

Total enthalpy                    ...   -155.79249909 Eh 
Total entropy correction          ...     -0.03042029 Eh    -19.09 kcal/mol
-----------------------------------------------------------------------
Final Gibbs free enthalpy         ...   -155.82291938 Eh

For completeness - the Gibbs free enthalpy minus the electronic energy
G-E(el)                           ...      0.05940057 Eh     37.27 kcal/mol


Timings for individual modules:

Sum of individual times         ...       85.878 sec (=   1.431 min)
GTO integral calculation        ...        3.334 sec (=   0.056 min)   3.9 %
SCF iterations                  ...       27.268 sec (=   0.454 min)  31.8 %
SCF Gradient evaluation         ...        6.828 sec (=   0.114 min)   8.0 %
Geometry relaxation             ...        0.290 sec (=   0.005 min)   0.3 %
Analytical frequency calculation...       48.158 sec (=   0.803 min)  56.1 %
                             ****ORCA TERMINATED NORMALLY****
TOTAL RUN TIME: 0 days 0 hours 1 minutes 26 seconds 482 msec
