
                                 *****************
                                 * O   R   C   A *
                                 *****************

           --- An Ab Initio, DFT and Semiempirical electronic structure package ---

                  #######################################################
                  #                        -***-                        #
                  #          Department of theory and spectroscopy      #
                  #               Directorship: Frank Neese             #
                  #        Max Planck Institute fuer Kohlenforschung    #
                  #                Kaiser Wilhelm Platz 1               #
                  #                 D-45470 Muelheim/Ruhr               #
                  #                      Germany                        #
                  #                                                     #
                  #                  All rights reserved                #
                  #                        -***-                        #
                  #######################################################


                         Program Version 4.1.0  - RELEASE  -


 With contributions from (in alphabetic order):
   Daniel Aravena         : Magnetic Properties
   Michael Atanasov       : Ab Initio Ligand Field Theory
   Alexander A. Auer      : GIAO ZORA
   Ute Becker             : Parallelization
   Giovanni Bistoni       : ED, Open-shell LED
   Martin Brehm           : Molecular dynamics
   Dmytro Bykov           : SCF Hessian
   Vijay G. Chilkuri      : MRCI spin determinant printing
   Dipayan Datta          : RHF DLPNO-CCSD density
   Achintya Kumar Dutta   : EOM-CC, STEOM-CC
   Dmitry Ganyushin       : Spin-Orbit,Spin-Spin,Magnetic field MRCI
   Miquel Garcia          : C-PCM Hessian
   Yang Guo               : DLPNO-NEVPT2, CIM, IAO-localization
   Andreas Hansen         : Spin unrestricted coupled pair/coupled cluster methods
   Benjamin Helmich-Paris : CASSCF linear response (MC-RPA)
   Lee Huntington         : MR-EOM, pCC
   Robert Izsak           : Overlap fitted RIJCOSX, COSX-SCS-MP3, EOM
   Christian Kollmar      : KDIIS, OOCD, Brueckner-CCSD(T), CCSD density
   Simone Kossmann        : Meta GGA functionals, TD-DFT gradient, OOMP2, MP2 Hessian
   Martin Krupicka        : AUTO-CI
   Lucas Lang             : DCDCAS
   Dagmar Lenk            : GEPOL surface, SMD
   Dimitrios Liakos       : Extrapolation schemes; parallel MDCI
   Dimitrios Manganas     : ROCIS; embedding schemes
   Dimitrios Pantazis     : SARC Basis sets
   Taras Petrenko         : DFT Hessian,TD-DFT gradient, ASA, ECA, R-Raman, ABS, FL, XAS/XES, NRVS
   Peter Pinski           : DLPNO-MP2, DLPNO-MP2 Gradient
   Christoph Reimann      : Effective Core Potentials
   Marius Retegan         : Local ZFS, SOC
   Christoph Riplinger    : Optimizer, TS searches, QM/MM, DLPNO-CCSD(T), (RO)-DLPNO pert. Triples
   Tobias Risthaus        : Range-separated hybrids, TD-DFT gradient, RPA, STAB
   Michael Roemelt        : Restricted open shell CIS
   Masaaki Saitow         : Open-shell DLPNO
   Barbara Sandhoefer     : DKH picture change effects
   Avijit Sen             : IP-ROCIS
   Kantharuban Sivalingam : CASSCF convergence, NEVPT2, FIC-MRCI
   Bernardo de Souza      : ESD, SOC TD-DFT
   Georgi Stoychev        : AutoAux, RI-MP2 NMR
   Willem Van den Heuvel  : Paramagnetic NMR
   Boris Wezisla          : Elementary symmetry handling
   Frank Wennmohs         : Technical directorship


 We gratefully acknowledge several colleagues who have allowed us to
 interface, adapt or use parts of their codes:
   Stefan Grimme, W. Hujo, H. Kruse,             : VdW corrections, initial TS optimization,
                  C. Bannwarth                     DFT functionals, gCP, sTDA/sTD-DF
   Ed Valeev                                     : LibInt (2-el integral package), F12 methods
   Garnet Chan, S. Sharma, J. Yang, R. Olivares  : DMRG
   Ulf Ekstrom                                   : XCFun DFT Library
   Mihaly Kallay                                 : mrcc  (arbitrary order and MRCC methods)
   Andreas Klamt, Michael Diedenhofen            : otool_cosmo (COSMO solvation model)
   Jiri Pittner, Ondrej Demel                    : Mk-CCSD
   Frank Weinhold                                : gennbo (NPA and NBO analysis)
   Christopher J. Cramer and Donald G. Truhlar   : smd solvation model
   Lars Goerigk                                  : TD-DFT with DH, B97 family of functionals
   V. Asgeirsson, H. Jonsson                     : NEB implementation
   FAccTs GmbH                                   : IRC, NEB, NEB-TS, Multilevel


 Your calculation uses the libint2 library for the computation of 2-el integrals
 For citations please refer to: http://libint.valeyev.net

 This ORCA versions uses:
   CBLAS   interface :  Fast vector & matrix operations
   LAPACKE interface :  Fast linear algebra routines
   SCALAPACK package :  Parallel linear algebra routines


----- Orbital basis set information -----
Your calculation utilizes the basis: 6-31G**
   H-He, Li-Ne : W. J. Hehre, R. Ditchfield and J.A. Pople, J. Chem. Phys. 56, 2257 (1972).
                 Note: He and Ne are unpublished basis sets taken from the Gaussian program.
                 Note: Li and B from J. D. Dill and J. A. Pople, J. Chem. Phys. 62, 2921 (1975).
   Na - Ar     : M. M. Francl, W. J. Pietro, W. J. Hehre, J. S. Binkley, M. S. Gordon, 
                 D. J. DeFrees and J. A. Pople, J. Chem. Phys. 77, 3654 (1982).
   K - Zn      : V. A. Rassolov, J. A. Pople, M. A. Ratner, and T. L. Windus, J. Chem. Phys. 109, 1223 (1998).

================================================================================
                                        WARNINGS
                       Please study these warnings very carefully!
================================================================================


WARNING: Geometry Optimization
  ===> : Switching off AutoStart
         For restart on a previous wavefunction, please use MOREAD

INFO   : the flag for use of LIBINT has been found!

================================================================================
                                       INPUT FILE
================================================================================
NAME = 04_da_product.inp
|  1> ! PAL4 B3LYP 6-31G** opt freq
|  2> 
|  3> %geom
|  4>  calc_hess True
|  5> end
|  6> 
|  7> *xyz 0 1
|  8>  C                 -0.12594204   -0.14632479   -0.43297300
|  9>  H                  0.01878098   -0.74176229   -1.32760928
| 10>  C                 -0.12594157    1.19128419   -0.43297313
| 11>  H                  0.01878188    1.78672143   -1.32760949
| 12>  C                 -0.32851384    1.93704927    0.85300253
| 13>  H                 -0.58094665    2.99699991    0.66266278
| 14>  H                  0.63073342    1.94629484    1.41326592
| 15>  C                 -0.32851444   -0.89208958    0.85300279
| 16>  H                 -0.58094818   -1.95204003    0.66266319
| 17>  H                  0.63073312   -0.90133593    1.41326567
| 18>  C                 -1.42522729    1.29284079    1.72113669
| 19>  C                 -1.42522689   -0.24788036    1.72113770
| 20>  H                 -1.32738361    1.66454071    2.75796583
| 21>  H                 -2.41139013    1.64766135    1.36268134
| 22>  H                 -1.32738146   -0.61957886    2.75796719
| 23>  H                 -2.41139012   -0.60270186    1.36268435
| 24> *
| 25> 
| 26>                          ****END OF INPUT****
================================================================================

                       *****************************
                       * Geometry Optimization Run *
                       *****************************

Geometry optimization settings:
Update method            Update   .... BFGS
Choice of coordinates    CoordSys .... Z-matrix Internals
Initial Hessian          InHess   .... Almoef's Model

Convergence Tolerances:
Energy Change            TolE     ....  5.0000e-06 Eh
Max. Gradient            TolMAXG  ....  3.0000e-04 Eh/bohr
RMS Gradient             TolRMSG  ....  1.0000e-04 Eh/bohr
Max. Displacement        TolMAXD  ....  4.0000e-03 bohr
RMS Displacement         TolRMSD  ....  2.0000e-03 bohr

------------------------------------------------------------------------------
                        ORCA OPTIMIZATION COORDINATE SETUP
------------------------------------------------------------------------------

The optimization will be done in new redundant internal coordinates
Making redundant internal coordinates   ...  (new redundants) done
Evaluating the initial hessian          ...  (Is done on the fly) done
Evaluating the coordinates              ...  done
Calculating the B-matrix                .... done
Calculating the G-matrix                .... done
Diagonalizing the G-matrix              .... done
The first mode is                       ....   47
The number of degrees of freedom        ....   42

    -----------------------------------------------------------------
                    Redundant Internal Coordinates


    -----------------------------------------------------------------
         Definition                    Initial Value    d2E/dq (diagonal element)
    -----------------------------------------------------------------
      1. B(H   1,C   0)                  1.0844         0.000000   
      2. B(C   2,C   0)                  1.3376         0.000000   
      3. B(H   3,C   2)                  1.0844         0.000000   
      4. B(C   4,C   2)                  1.5003         0.000000   
      5. B(H   5,C   4)                  1.1061         0.000000   
      6. B(H   6,C   4)                  1.1109         0.000000   
      7. B(C   7,C   0)                  1.5003         0.000000   
      8. B(H   8,C   7)                  1.1061         0.000000   
      9. B(H   9,C   7)                  1.1109         0.000000   
     10. B(C  10,C   4)                  1.5399         0.000000   
     11. B(C  11,C  10)                  1.5407         0.000000   
     12. B(C  11,C   7)                  1.5399         0.000000   
     13. B(H  12,C  10)                  1.1058         0.000000   
     14. B(H  13,C  10)                  1.1077         0.000000   
     15. B(H  14,C  11)                  1.1058         0.000000   
     16. B(H  15,C  11)                  1.1077         0.000000   
     17. A(H   1,C   0,C   7)          116.8872         0.000000   
     18. A(C   2,C   0,C   7)          119.8066         0.000000   
     19. A(H   1,C   0,C   2)          123.3058         0.000000   
     20. A(C   0,C   2,H   3)          123.3058         0.000000   
     21. A(H   3,C   2,C   4)          116.8872         0.000000   
     22. A(C   0,C   2,C   4)          119.8066         0.000000   
     23. A(C   2,C   4,H   6)          108.6525         0.000000   
     24. A(C   2,C   4,H   5)          111.0788         0.000000   
     25. A(H   5,C   4,H   6)          106.0140         0.000000   
     26. A(H   6,C   4,C  10)          109.5188         0.000000   
     27. A(H   5,C   4,C  10)          109.5942         0.000000   
     28. A(C   2,C   4,C  10)          111.8034         0.000000   
     29. A(H   8,C   7,H   9)          106.0140         0.000000   
     30. A(C   0,C   7,H   9)          108.6525         0.000000   
     31. A(C   0,C   7,H   8)          111.0788         0.000000   
     32. A(H   9,C   7,C  11)          109.5188         0.000000   
     33. A(H   8,C   7,C  11)          109.5942         0.000000   
     34. A(C   0,C   7,C  11)          111.8034         0.000000   
     35. A(H  12,C  10,H  13)          105.9344         0.000000   
     36. A(C  11,C  10,H  13)          108.6832         0.000000   
     37. A(C   4,C  10,H  13)          108.5189         0.000000   
     38. A(C  11,C  10,H  12)          109.6420         0.000000   
     39. A(C   4,C  10,H  12)          108.9629         0.000000   
     40. A(C   4,C  10,C  11)          114.7293         0.000000   
     41. A(H  14,C  11,H  15)          105.9344         0.000000   
     42. A(C  10,C  11,H  15)          108.6832         0.000000   
     43. A(C   7,C  11,H  15)          108.5189         0.000000   
     44. A(C  10,C  11,H  14)          109.6420         0.000000   
     45. A(C   7,C  11,H  14)          108.9629         0.000000   
     46. A(C   7,C  11,C  10)          114.7293         0.000000   
     47. D(C   4,C   2,C   0,C   7)     -0.0000         0.000000   
     48. D(C   4,C   2,C   0,H   1)   -179.7629         0.000000   
     49. D(H   3,C   2,C   0,H   1)     -0.0000         0.000000   
     50. D(H   3,C   2,C   0,C   7)    179.7629         0.000000   
     51. D(H   6,C   4,C   2,C   0)     79.4409         0.000000   
     52. D(C  10,C   4,C   2,C   0)    -41.5462         0.000000   
     53. D(H   5,C   4,C   2,C   0)   -164.3176         0.000000   
     54. D(H   6,C   4,C   2,H   3)   -100.3369         0.000000   
     55. D(C  10,C   4,C   2,H   3)    138.6760         0.000000   
     56. D(H   5,C   4,C   2,H   3)     15.9045         0.000000   
     57. D(H   9,C   7,C   0,C   2)    -79.4410         0.000000   
     58. D(H   9,C   7,C   0,H   1)    100.3369         0.000000   
     59. D(C  11,C   7,C   0,H   1)   -138.6760         0.000000   
     60. D(H   8,C   7,C   0,C   2)    164.3176         0.000000   
     61. D(H   8,C   7,C   0,H   1)    -15.9045         0.000000   
     62. D(C  11,C   7,C   0,C   2)     41.5461         0.000000   
     63. D(H  13,C  10,C   4,H   6)    157.0827         0.000000   
     64. D(H  13,C  10,C   4,H   5)     41.1783         0.000000   
     65. D(H  12,C  10,C   4,H   6)     42.1700         0.000000   
     66. D(H  12,C  10,C   4,C   2)    162.6529         0.000000   
     67. D(C  11,C  10,C   4,H   6)    -81.1676         0.000000   
     68. D(H  13,C  10,C   4,C   2)    -82.4343         0.000000   
     69. D(C  11,C  10,C   4,H   5)    162.9280         0.000000   
     70. D(C  11,C  10,C   4,C   2)     39.3154         0.000000   
     71. D(H  12,C  10,C   4,H   5)    -73.7345         0.000000   
     72. D(H  14,C  11,C   7,H   8)     73.7346         0.000000   
     73. D(H  14,C  11,C   7,C   0)   -162.6528         0.000000   
     74. D(C  10,C  11,C   7,H   9)     81.1677         0.000000   
     75. D(C  10,C  11,C   7,H   8)   -162.9279         0.000000   
     76. D(H  14,C  11,C   7,H   9)    -42.1698         0.000000   
     77. D(C  10,C  11,C   7,C   0)    -39.3153         0.000000   
     78. D(H  15,C  11,C  10,H  12)    115.3663         0.000000   
     79. D(H  15,C  11,C  10,C   4)   -121.6603         0.000000   
     80. D(H  14,C  11,C  10,H  13)   -115.3665         0.000000   
     81. D(H  14,C  11,C  10,H  12)     -0.0001         0.000000   
     82. D(H  14,C  11,C  10,C   4)    122.9733         0.000000   
     83. D(C   7,C  11,C  10,H  13)    121.6601         0.000000   
     84. D(C   7,C  11,C  10,H  12)   -122.9735         0.000000   
     85. D(C   7,C  11,C  10,C   4)     -0.0001         0.000000   
     86. D(H  15,C  11,C   7,H   9)   -157.0826         0.000000   
     87. D(H  15,C  11,C   7,H   8)    -41.1782         0.000000   
     88. D(H  15,C  11,C  10,H  13)     -0.0001         0.000000   
     89. D(H  15,C  11,C   7,C   0)     82.4344         0.000000   
    -----------------------------------------------------------------

Number of atoms                         .... 16
Number of degrees of freedom            .... 89

         *************************************************************
         *                GEOMETRY OPTIMIZATION CYCLE   1            *
         *************************************************************
---------------------------------
CARTESIAN COORDINATES (ANGSTROEM)
---------------------------------
  C     -0.125942   -0.146325   -0.432973
  H      0.018781   -0.741762   -1.327609
  C     -0.125942    1.191284   -0.432973
  H      0.018782    1.786721   -1.327609
  C     -0.328514    1.937049    0.853003
  H     -0.580947    2.997000    0.662663
  H      0.630733    1.946295    1.413266
  C     -0.328514   -0.892090    0.853003
  H     -0.580948   -1.952040    0.662663
  H      0.630733   -0.901336    1.413266
  C     -1.425227    1.292841    1.721137
  C     -1.425227   -0.247880    1.721138
  H     -1.327384    1.664541    2.757966
  H     -2.411390    1.647661    1.362681
  H     -1.327381   -0.619579    2.757967
  H     -2.411390   -0.602702    1.362684

----------------------------
CARTESIAN COORDINATES (A.U.)
----------------------------
  NO LB      ZA    FRAG     MASS         X           Y           Z
   0 C     6.0000    0    12.011   -0.237996   -0.276514   -0.818200
   1 H     1.0000    0     1.008    0.035491   -1.401728   -2.508818
   2 C     6.0000    0    12.011   -0.237995    2.251201   -0.818201
   3 H     1.0000    0     1.008    0.035493    3.376414   -2.508818
   4 C     6.0000    0    12.011   -0.620801    3.660493    1.611941
   5 H     1.0000    0     1.008   -1.097830    5.663509    1.252251
   6 H     1.0000    0     1.008    1.191913    3.677964    2.670686
   7 C     6.0000    0    12.011   -0.620802   -1.685805    1.611942
   8 H     1.0000    0     1.008   -1.097833   -3.688821    1.252252
   9 H     1.0000    0     1.008    1.191913   -1.703278    2.670685
  10 C     6.0000    0    12.011   -2.693289    2.443115    3.252477
  11 C     6.0000    0    12.011   -2.693289   -0.468426    3.252479
  12 H     1.0000    0     1.008   -2.508391    3.145526    5.211800
  13 H     1.0000    0     1.008   -4.556867    3.113629    2.575095
  14 H     1.0000    0     1.008   -2.508387   -1.170834    5.211803
  15 H     1.0000    0     1.008   -4.556867   -1.138941    2.575100

--------------------------------
INTERNAL COORDINATES (ANGSTROEM)
--------------------------------
 C      0   0   0     0.000000000000     0.00000000     0.00000000
 H      1   0   0     1.084372925896     0.00000000     0.00000000
 C      1   2   0     1.337608980000   123.30580879     0.00000000
 H      3   1   2     1.084372906519   123.30581045     0.00000000
 C      3   1   2     1.500311460075   119.80656433   180.23707936
 H      5   3   1     1.106095340932   111.07881724   195.68236868
 H      5   3   1     1.110916672193   108.65249299    79.44093791
 C      1   2   3     1.500311444905   116.88722317   180.23066587
 H      8   1   2     1.106095345291   111.07881517   344.09545247
 H      8   1   2     1.110916680521   108.65248616   100.33687551
 C      5   3   1     1.539948660467   111.80335798   318.45384175
 C      8   1   2     1.539948680664   111.80337533   221.32397321
 H     11   5   3     1.105779761886   108.96286228   162.65290729
 H     11   5   3     1.107657444673   108.51893169   277.56568281
 H     12   8   1     1.105779767588   108.96285835   197.34721370
 H     12   8   1     1.107657445780   108.51893286    82.43444146

---------------------------
INTERNAL COORDINATES (A.U.)
---------------------------
 C      0   0   0     0.000000000000     0.00000000     0.00000000
 H      1   0   0     2.049167856982     0.00000000     0.00000000
 C      1   2   0     2.527714646474   123.30580879     0.00000000
 H      3   1   2     2.049167820365   123.30581045     0.00000000
 C      3   1   2     2.835177775126   119.80656433   180.23707936
 H      5   3   1     2.090217272367   111.07881724   195.68236868
 H      5   3   1     2.099328268052   108.65249299    79.44093791
 C      1   2   3     2.835177746457   116.88722317   180.23066587
 H      8   1   2     2.090217280604   111.07881517   344.09545247
 H      8   1   2     2.099328283790   108.65248616   100.33687551
 C      5   3   1     2.910081228581   111.80335798   318.45384175
 C      8   1   2     2.910081266748   111.80337533   221.32397321
 H     11   5   3     2.089620914398   108.96286228   162.65290729
 H     11   5   3     2.093169220631   108.51893169   277.56568281
 H     12   8   1     2.089620925173   108.96285835   197.34721370
 H     12   8   1     2.093169222723   108.51893286    82.43444146

---------------------
BASIS SET INFORMATION
---------------------
There are 2 groups of distinct atoms

 Group   1 Type C   : 10s4p1d contracted to 3s2p1d pattern {631/31/1}
 Group   2 Type H   : 4s1p contracted to 2s1p pattern {31/1}

Atom   0C    basis set group =>   1
Atom   1H    basis set group =>   2
Atom   2C    basis set group =>   1
Atom   3H    basis set group =>   2
Atom   4C    basis set group =>   1
Atom   5H    basis set group =>   2
Atom   6H    basis set group =>   2
Atom   7C    basis set group =>   1
Atom   8H    basis set group =>   2
Atom   9H    basis set group =>   2
Atom  10C    basis set group =>   1
Atom  11C    basis set group =>   1
Atom  12H    basis set group =>   2
Atom  13H    basis set group =>   2
Atom  14H    basis set group =>   2
Atom  15H    basis set group =>   2


           ************************************************************
           *        Program running with 4 parallel MPI-processes     *
           *              working on a common directory               *
           ************************************************************
------------------------------------------------------------------------------
                           ORCA GTO INTEGRAL CALCULATION
------------------------------------------------------------------------------

                         BASIS SET STATISTICS AND STARTUP INFO

 # of primitive gaussian shells          ...  140
 # of primitive gaussian functions       ...  232
 # of contracted shells                  ...   66
 # of contracted basis functions         ...  134
 Highest angular momentum                ...    2
 Maximum contraction depth               ...    6
 Integral package used                   ... LIBINT
 Integral threshhold            Thresh   ...  2.500e-11
 Primitive cut-off              TCut     ...  2.500e-12


------------------------------ INTEGRAL EVALUATION ----------------------------


 * One electron integrals 
 Pre-screening matrix                    ... done
 Shell pair data                         ... done (   0.001 sec)



           ************************************************************
           *        Program running with 4 parallel MPI-processes     *
           *              working on a common directory               *
           ************************************************************
-------------------------------------------------------------------------------
                                 ORCA SCF
-------------------------------------------------------------------------------

------------
SCF SETTINGS
------------
Hamiltonian:
 Density Functional     Method          .... DFT(GTOs)
 Exchange Functional    Exchange        .... B88
   X-Alpha parameter    XAlpha          ....  0.666667
   Becke's b parameter  XBeta           ....  0.004200
 Correlation Functional Correlation     .... LYP
 LDA part of GGA corr.  LDAOpt          .... VWN-5
 Gradients option       PostSCFGGA      .... off
 Hybrid DFT is turned on
   Fraction HF Exchange ScalHFX         ....  0.200000
   Scaling of DF-GGA-X  ScalDFX         ....  0.720000
   Scaling of DF-GGA-C  ScalDFC         ....  0.810000
   Scaling of DF-LDA-C  ScalLDAC        ....  1.000000
   Perturbative correction              ....  0.000000
   Density functional embedding theory  .... OFF
   NL short-range parameter             ....  4.800000


General Settings:
 Integral files         IntName         .... 04_da_product
 Hartree-Fock type      HFTyp           .... RHF
 Total Charge           Charge          ....    0
 Multiplicity           Mult            ....    1
 Number of Electrons    NEL             ....   46
 Basis Dimension        Dim             ....  134
 Nuclear Repulsion      ENuc            ....    236.2075416248 Eh

Convergence Acceleration:
 DIIS                   CNVDIIS         .... on
   Start iteration      DIISMaxIt       ....    12
   Startup error        DIISStart       ....  0.200000
   # of expansion vecs  DIISMaxEq       ....     5
   Bias factor          DIISBfac        ....   1.050
   Max. coefficient     DIISMaxC        ....  10.000
 Newton-Raphson         CNVNR           .... off
 SOSCF                  CNVSOSCF        .... on
   Start iteration      SOSCFMaxIt      ....   150
   Startup grad/error   SOSCFStart      ....  0.003300
 Level Shifting         CNVShift        .... on
   Level shift para.    LevelShift      ....    0.2500
   Turn off err/grad.   ShiftErr        ....    0.0010
 Zerner damping         CNVZerner       .... off
 Static damping         CNVDamp         .... on
   Fraction old density DampFac         ....    0.7000
   Max. Damping (<1)    DampMax         ....    0.9800
   Min. Damping (>=0)   DampMin         ....    0.0000
   Turn off err/grad.   DampErr         ....    0.1000
 Fernandez-Rico         CNVRico         .... off

SCF Procedure:
 Maximum # iterations   MaxIter         ....   125
 SCF integral mode      SCFMode         .... Direct
   Integral package                     .... LIBINT
 Reset frequency        DirectResetFreq ....    20
 Integral Threshold     Thresh          ....  2.500e-11 Eh
 Primitive CutOff       TCut            ....  2.500e-12 Eh

Convergence Tolerance:
 Convergence Check Mode ConvCheckMode   .... Total+1el-Energy
 Convergence forced     ConvForced      .... 0
 Energy Change          TolE            ....  1.000e-08 Eh
 1-El. energy change                    ....  1.000e-05 Eh
 Orbital Gradient       TolG            ....  1.000e-05
 Orbital Rotation angle TolX            ....  1.000e-05
 DIIS Error             TolErr          ....  5.000e-07


Diagonalization of the overlap matrix:
Smallest eigenvalue                        ... 1.932e-03
Time for diagonalization                   ...    0.003 sec
Threshold for overlap eigenvalues          ... 1.000e-08
Number of eigenvalues below threshold      ... 0
Time for construction of square roots      ...    0.002 sec
Total time needed                          ...    0.004 sec

-------------------
DFT GRID GENERATION
-------------------

General Integration Accuracy     IntAcc      ...  4.340
Radial Grid Type                 RadialGrid  ... Gauss-Chebyshev
Angular Grid (max. acc.)         AngularGrid ... Lebedev-110
Angular grid pruning method      GridPruning ... 3 (G Style)
Weight generation scheme         WeightScheme... Becke
Basis function cutoff            BFCut       ...    1.0000e-11
Integration weight cutoff        WCut        ...    1.0000e-14
Grids for H and He will be reduced by one unit

# of grid points (after initial pruning)     ...  17876 (   0.0 sec)
# of grid points (after weights+screening)   ...  16448 (   0.0 sec)
nearest neighbour list constructed           ...    0.0 sec
Grid point re-assignment to atoms done       ...    0.0 sec
Grid point division into batches done        ...    0.0 sec
Reduced shell lists constructed in    0.0 sec

Total number of grid points                  ...    16448
Total number of batches                      ...      262
Average number of points per batch           ...       62
Average number of grid points per atom       ...     1028
Average number of shells per batch           ...    48.94 (74.15%)
Average number of basis functions per batch  ...    98.61 (73.59%)
Average number of large shells per batch     ...    38.64 (78.96%)
Average number of large basis fcns per batch ...    77.51 (78.60%)
Maximum spatial batch extension              ...  25.60, 15.96, 15.57 au
Average spatial batch extension              ...   1.11,  0.85,  0.90 au

Time for grid setup =    0.070 sec

------------------------------
INITIAL GUESS: MODEL POTENTIAL
------------------------------
Loading Hartree-Fock densities                     ... done
Calculating cut-offs                               ... done
Setting up the integral package                    ... done
Initializing the effective Hamiltonian             ... done
Starting the Coulomb interaction                   ... done (   0.0 sec)
Reading the grid                                   ... done
Mapping shells                                     ... done
Starting the XC term evaluation                    ... done (   0.1 sec)
  promolecular density results
     # of electrons  =     45.992845894
     EX              =    -33.802540033
     EC              =     -1.481120610
     EX+EC           =    -35.283660644
Transforming the Hamiltonian                       ... done (   0.0 sec)
Diagonalizing the Hamiltonian                      ... done (   0.0 sec)
Back transforming the eigenvectors                 ... done (   0.0 sec)
Now organizing SCF variables                       ... done
                      ------------------
                      INITIAL GUESS DONE (   0.2 sec)
                      ------------------
--------------
SCF ITERATIONS
--------------
ITER       Energy         Delta-E        Max-DP      RMS-DP      [F,P]     Damp
               ***  Starting incremental Fock matrix formation  ***
  0   -234.2838792768   0.000000000000 0.04760965  0.00234651  0.1307038 0.7000
  1   -234.3734021623  -0.089522885560 0.03844101  0.00180616  0.0707532 0.7000
                               ***Turning on DIIS***
  2   -234.4103723472  -0.036970184844 0.06227057  0.00305242  0.0281880 0.0000
  3   -234.4631428115  -0.052770464334 0.02864360  0.00127785  0.0404910 0.0000
  4   -234.4780012502  -0.014858438660 0.00937022  0.00034449  0.0074951 0.0000
                      *** Initiating the SOSCF procedure ***
                           *** Shutting down DIIS ***
                      *** Re-Reading the Fockian *** 
                      *** Removing any level shift *** 
ITER      Energy       Delta-E        Grad      Rot      Max-DP    RMS-DP
  5   -234.47863545  -0.0006342035  0.000817  0.000817  0.002763  0.000119
               *** Restarting incremental Fock matrix formation ***
  6   -234.47867916  -0.0000437041  0.000347  0.000780  0.002000  0.000078
  7   -234.47867977  -0.0000006133  0.000349  0.000225  0.000563  0.000023
  8   -234.47868322  -0.0000034465  0.000031  0.000034  0.000079  0.000004
  9   -234.47868324  -0.0000000203  0.000019  0.000015  0.000026  0.000002
 10   -234.47868325  -0.0000000117  0.000004  0.000006  0.000018  0.000001
 11   -234.47868325   0.0000000001  0.000003  0.000003  0.000008  0.000000
                 **** Energy Check signals convergence ****
              ***Rediagonalizing the Fockian in SOSCF/NRSCF***

               *****************************************************
               *                     SUCCESS                       *
               *           SCF CONVERGED AFTER  12 CYCLES          *
               *****************************************************

Setting up the final grid:

General Integration Accuracy     IntAcc      ...  4.670
Radial Grid Type                 RadialGrid  ... Gauss-Chebyshev
Angular Grid (max. acc.)         AngularGrid ... Lebedev-302
Angular grid pruning method      GridPruning ... 3 (G Style)
Weight generation scheme         WeightScheme... Becke
Basis function cutoff            BFCut       ...    1.0000e-11
Integration weight cutoff        WCut        ...    1.0000e-14
Grids for H and He will be reduced by one unit

# of grid points (after initial pruning)     ...  71212 (   0.0 sec)
# of grid points (after weights+screening)   ...  64632 (   0.0 sec)
nearest neighbour list constructed           ...    0.0 sec
Grid point re-assignment to atoms done       ...    0.0 sec
Grid point division into batches done        ...    0.2 sec
Reduced shell lists constructed in    0.3 sec

Total number of grid points                  ...    64632
Total number of batches                      ...     1018
Average number of points per batch           ...       63
Average number of grid points per atom       ...     4040
Average number of shells per batch           ...    45.09 (68.32%)
Average number of basis functions per batch  ...    90.46 (67.51%)
Average number of large shells per batch     ...    35.01 (77.65%)
Average number of large basis fcns per batch ...    69.61 (76.94%)
Maximum spatial batch extension              ...  17.65, 15.34, 15.92 au
Average spatial batch extension              ...   0.66,  0.61,  0.61 au

Final grid set up in    0.4 sec
Final integration                            ... done (   0.2 sec)
Change in XC energy                          ...    -0.000571156
Integrated number of electrons               ...    45.999885621
Previous integrated no of electrons          ...    45.998002526

----------------
TOTAL SCF ENERGY
----------------

Total Energy       :         -234.47925441 Eh           -6380.50489 eV

Components:
Nuclear Repulsion  :          236.20754162 Eh            6427.53398 eV
Electronic Energy  :         -470.68679603 Eh          -12808.03887 eV
One Electron Energy:         -782.45726169 Eh          -21291.74454 eV
Two Electron Energy:          311.77046566 Eh            8483.70567 eV

Virial components:
Potential Energy   :         -467.39500573 Eh          -12718.46470 eV
Kinetic Energy     :          232.91575133 Eh            6337.95981 eV
Virial Ratio       :            2.00671274


DFT components:
N(Alpha)           :       22.999942810413 electrons
N(Beta)            :       22.999942810413 electrons
N(Total)           :       45.999885620826 electrons
E(X)               :      -27.484142042480 Eh       
E(C)               :       -1.756643386243 Eh       
E(XC)              :      -29.240785428723 Eh       
DFET-embed. en.    :        0.000000000000 Eh       

---------------
SCF CONVERGENCE
---------------

  Last Energy change         ...   -1.4087e-09  Tolerance :   1.0000e-08
  Last MAX-Density change    ...    4.2517e-07  Tolerance :   1.0000e-07
  Last RMS-Density change    ...    1.8119e-08  Tolerance :   5.0000e-09
  Last Orbital Gradient      ...    1.5963e-07  Tolerance :   1.0000e-05
  Last Orbital Rotation      ...    2.2531e-07  Tolerance :   1.0000e-05

             **** THE GBW FILE WAS UPDATED (04_da_product.gbw) ****
             **** DENSITY FILE WAS UPDATED (04_da_product.scfp.tmp) ****
             **** ENERGY FILE WAS UPDATED (04_da_product.en.tmp) ****
----------------
ORBITAL ENERGIES
----------------

  NO   OCC          E(Eh)            E(eV) 
   0   2.0000     -10.172506      -276.8079 
   1   2.0000     -10.172455      -276.8066 
   2   2.0000     -10.170026      -276.7405 
   3   2.0000     -10.169903      -276.7371 
   4   2.0000     -10.164980      -276.6032 
   5   2.0000     -10.164237      -276.5830 
   6   2.0000      -0.820318       -22.3220 
   7   2.0000      -0.728744       -19.8301 
   8   2.0000      -0.727710       -19.8020 
   9   2.0000      -0.608555       -16.5596 
  10   2.0000      -0.583835       -15.8870 
  11   2.0000      -0.488273       -13.2866 
  12   2.0000      -0.483297       -13.1512 
  13   2.0000      -0.461072       -12.5464 
  14   2.0000      -0.395427       -10.7601 
  15   2.0000      -0.393183       -10.6991 
  16   2.0000      -0.388593       -10.5741 
  17   2.0000      -0.367326        -9.9954 
  18   2.0000      -0.364239        -9.9114 
  19   2.0000      -0.313282        -8.5248 
  20   2.0000      -0.309453        -8.4206 
  21   2.0000      -0.289316        -7.8727 
  22   2.0000      -0.229864        -6.2549 
  23   0.0000       0.030868         0.8400 
  24   0.0000       0.086334         2.3493 
  25   0.0000       0.112801         3.0695 
  26   0.0000       0.132890         3.6161 
  27   0.0000       0.149220         4.0605 
  28   0.0000       0.151084         4.1112 
  29   0.0000       0.171798         4.6749 
  30   0.0000       0.186607         5.0778 
  31   0.0000       0.193691         5.2706 
  32   0.0000       0.213118         5.7992 
  33   0.0000       0.218799         5.9538 
  34   0.0000       0.240096         6.5333 
  35   0.0000       0.252052         6.8587 
  36   0.0000       0.257394         7.0040 
  37   0.0000       0.315394         8.5823 
  38   0.0000       0.378303        10.2941 
  39   0.0000       0.431398        11.7389 
  40   0.0000       0.497317        13.5327 
  41   0.0000       0.516982        14.0678 
  42   0.0000       0.551491        15.0068 
  43   0.0000       0.567670        15.4471 
  44   0.0000       0.588031        16.0011 
  45   0.0000       0.618635        16.8339 
  46   0.0000       0.624246        16.9866 
  47   0.0000       0.631265        17.1776 
  48   0.0000       0.648063        17.6347 
  49   0.0000       0.664649        18.0860 
  50   0.0000       0.694091        18.8872 
  51   0.0000       0.709015        19.2933 
  52   0.0000       0.718984        19.5645 
  53   0.0000       0.774503        21.0753 
  54   0.0000       0.802343        21.8329 
  55   0.0000       0.836277        22.7563 
  56   0.0000       0.837923        22.8011 
  57   0.0000       0.842226        22.9181 
  58   0.0000       0.843885        22.9633 
  59   0.0000       0.863487        23.4967 
  60   0.0000       0.868477        23.6325 
  61   0.0000       0.904545        24.6139 
  62   0.0000       0.907230        24.6870 
  63   0.0000       0.911650        24.8073 
  64   0.0000       0.930039        25.3077 
  65   0.0000       0.948231        25.8027 
  66   0.0000       0.963592        26.2207 
  67   0.0000       1.096996        29.8508 
  68   0.0000       1.142940        31.1010 
  69   0.0000       1.146529        31.1986 
  70   0.0000       1.265874        34.4462 
  71   0.0000       1.341483        36.5036 
  72   0.0000       1.395478        37.9729 
  73   0.0000       1.429929        38.9103 
  74   0.0000       1.441563        39.2269 
  75   0.0000       1.514587        41.2140 
  76   0.0000       1.534622        41.7592 
  77   0.0000       1.648241        44.8509 
  78   0.0000       1.679544        45.7027 
  79   0.0000       1.703632        46.3582 
  80   0.0000       1.760132        47.8956 
  81   0.0000       1.794348        48.8267 
  82   0.0000       1.838436        50.0264 
  83   0.0000       1.853017        50.4231 
  84   0.0000       1.865494        50.7627 
  85   0.0000       1.911562        52.0163 
  86   0.0000       1.916637        52.1543 
  87   0.0000       1.947736        53.0006 
  88   0.0000       1.993911        54.2571 
  89   0.0000       2.004533        54.5461 
  90   0.0000       2.024239        55.0823 
  91   0.0000       2.074945        56.4621 
  92   0.0000       2.118141        57.6376 
  93   0.0000       2.140052        58.2338 
  94   0.0000       2.145333        58.3775 
  95   0.0000       2.205243        60.0077 
  96   0.0000       2.214192        60.2512 
  97   0.0000       2.289173        62.2916 
  98   0.0000       2.309107        62.8340 
  99   0.0000       2.334126        63.5148 
 100   0.0000       2.334947        63.5371 
 101   0.0000       2.374041        64.6009 
 102   0.0000       2.386038        64.9274 
 103   0.0000       2.407970        65.5242 
 104   0.0000       2.433512        66.2192 
 105   0.0000       2.484474        67.6060 
 106   0.0000       2.486424        67.6590 
 107   0.0000       2.506659        68.2096 
 108   0.0000       2.508932        68.2715 
 109   0.0000       2.553962        69.4968 
 110   0.0000       2.632991        71.6473 
 111   0.0000       2.655103        72.2490 
 112   0.0000       2.659280        72.3627 
 113   0.0000       2.711115        73.7732 
 114   0.0000       2.735917        74.4481 
 115   0.0000       2.739871        74.5557 
 116   0.0000       2.772231        75.4362 
 117   0.0000       2.805294        76.3359 
 118   0.0000       2.824829        76.8675 
 119   0.0000       2.871350        78.1334 
 120   0.0000       2.871469        78.1366 
 121   0.0000       2.962474        80.6130 
 122   0.0000       3.043086        82.8066 
 123   0.0000       3.176778        86.4445 
 124   0.0000       3.202503        87.1445 
 125   0.0000       3.256524        88.6145 
 126   0.0000       3.286270        89.4240 
 127   0.0000       3.291075        89.5547 
 128   0.0000       3.336603        90.7936 
 129   0.0000       3.420355        93.0726 
 130   0.0000       3.469229        94.4025 
 131   0.0000       3.473350        94.5146 
 132   0.0000       3.547739        96.5389 
 133   0.0000       3.714835       101.0858 

                    ********************************
                    * MULLIKEN POPULATION ANALYSIS *
                    ********************************

-----------------------
MULLIKEN ATOMIC CHARGES
-----------------------
   0 C :   -0.069198
   1 H :    0.076507
   2 C :   -0.069198
   3 H :    0.076507
   4 C :   -0.212557
   5 H :    0.093206
   6 H :    0.102151
   7 C :   -0.212557
   8 H :    0.093206
   9 H :    0.102151
  10 C :   -0.169434
  11 C :   -0.169434
  12 H :    0.086687
  13 H :    0.092639
  14 H :    0.086687
  15 H :    0.092639
Sum of atomic charges:    0.0000000

--------------------------------
MULLIKEN REDUCED ORBITAL CHARGES
--------------------------------
  0 C s       :     3.168858  s :     3.168858
      pz      :     0.912856  p :     2.866028
      px      :     1.000473
      py      :     0.952698
      dz2     :     0.007407  d :     0.034311
      dxz     :     0.002480
      dyz     :     0.013434
      dx2y2   :     0.004702
      dxy     :     0.006288
  1 H s       :     0.911155  s :     0.911155
      pz      :     0.005776  p :     0.012338
      px      :     0.002909
      py      :     0.003654
  2 C s       :     3.168858  s :     3.168858
      pz      :     0.912856  p :     2.866028
      px      :     1.000473
      py      :     0.952698
      dz2     :     0.007407  d :     0.034311
      dxz     :     0.002480
      dyz     :     0.013434
      dx2y2   :     0.004702
      dxy     :     0.006288
  3 H s       :     0.911155  s :     0.911155
      pz      :     0.005776  p :     0.012338
      px      :     0.002909
      py      :     0.003654
  4 C s       :     3.224554  s :     3.224554
      pz      :     0.961709  p :     2.949459
      px      :     0.987795
      py      :     0.999955
      dz2     :     0.007605  d :     0.038544
      dxz     :     0.009986
      dyz     :     0.006684
      dx2y2   :     0.010170
      dxy     :     0.004099
  5 H s       :     0.895731  s :     0.895731
      pz      :     0.002221  p :     0.011063
      px      :     0.002449
      py      :     0.006393
  6 H s       :     0.886526  s :     0.886526
      pz      :     0.003389  p :     0.011323
      px      :     0.005601
      py      :     0.002333
  7 C s       :     3.224554  s :     3.224554
      pz      :     0.961709  p :     2.949459
      px      :     0.987795
      py      :     0.999955
      dz2     :     0.007605  d :     0.038544
      dxz     :     0.009986
      dyz     :     0.006684
      dx2y2   :     0.010170
      dxy     :     0.004099
  8 H s       :     0.895731  s :     0.895731
      pz      :     0.002221  p :     0.011063
      px      :     0.002449
      py      :     0.006393
  9 H s       :     0.886526  s :     0.886526
      pz      :     0.003389  p :     0.011323
      px      :     0.005601
      py      :     0.002333
 10 C s       :     3.214049  s :     3.214049
      pz      :     0.995590  p :     2.918196
      px      :     0.985014
      py      :     0.937592
      dz2     :     0.008968  d :     0.037189
      dxz     :     0.005037
      dyz     :     0.006773
      dx2y2   :     0.009681
      dxy     :     0.006730
 11 C s       :     3.214049  s :     3.214049
      pz      :     0.995590  p :     2.918196
      px      :     0.985014
      py      :     0.937592
      dz2     :     0.008968  d :     0.037189
      dxz     :     0.005037
      dyz     :     0.006773
      dx2y2   :     0.009681
      dxy     :     0.006730
 12 H s       :     0.902135  s :     0.902135
      pz      :     0.006159  p :     0.011178
      px      :     0.002318
      py      :     0.002700
 13 H s       :     0.896190  s :     0.896190
      pz      :     0.002751  p :     0.011172
      px      :     0.005780
      py      :     0.002641
 14 H s       :     0.902135  s :     0.902135
      pz      :     0.006159  p :     0.011178
      px      :     0.002318
      py      :     0.002700
 15 H s       :     0.896190  s :     0.896190
      pz      :     0.002751  p :     0.011172
      px      :     0.005780
      py      :     0.002641


                     *******************************
                     * LOEWDIN POPULATION ANALYSIS *
                     *******************************

----------------------
LOEWDIN ATOMIC CHARGES
----------------------
   0 C :   -0.087667
   1 H :    0.065353
   2 C :   -0.087667
   3 H :    0.065353
   4 C :   -0.129508
   5 H :    0.070924
   6 H :    0.072075
   7 C :   -0.129508
   8 H :    0.070924
   9 H :    0.072075
  10 C :   -0.122518
  11 C :   -0.122518
  12 H :    0.064812
  13 H :    0.066529
  14 H :    0.064812
  15 H :    0.066529

-------------------------------
LOEWDIN REDUCED ORBITAL CHARGES
-------------------------------
  0 C s       :     2.909014  s :     2.909014
      pz      :     1.030789  p :     3.095978
      px      :     0.987464
      py      :     1.077725
      dz2     :     0.018133  d :     0.082674
      dxz     :     0.004706
      dyz     :     0.033858
      dx2y2   :     0.012912
      dxy     :     0.013066
  1 H s       :     0.894114  s :     0.894114
      pz      :     0.020346  p :     0.040533
      px      :     0.008731
      py      :     0.011455
  2 C s       :     2.909014  s :     2.909014
      pz      :     1.030789  p :     3.095978
      px      :     0.987464
      py      :     1.077725
      dz2     :     0.018133  d :     0.082674
      dxz     :     0.004706
      dyz     :     0.033858
      dx2y2   :     0.012912
      dxy     :     0.013066
  3 H s       :     0.894114  s :     0.894114
      pz      :     0.020346  p :     0.040533
      px      :     0.008731
      py      :     0.011455
  4 C s       :     2.893747  s :     2.893747
      pz      :     1.046097  p :     3.152625
      px      :     1.053369
      py      :     1.053158
      dz2     :     0.016714  d :     0.083137
      dxz     :     0.022374
      dyz     :     0.015178
      dx2y2   :     0.020134
      dxy     :     0.008737
  5 H s       :     0.892269  s :     0.892269
      pz      :     0.006867  p :     0.036807
      px      :     0.007333
      py      :     0.022607
  6 H s       :     0.891001  s :     0.891001
      pz      :     0.011029  p :     0.036924
      px      :     0.019522
      py      :     0.006373
  7 C s       :     2.893747  s :     2.893747
      pz      :     1.046097  p :     3.152625
      px      :     1.053369
      py      :     1.053158
      dz2     :     0.016714  d :     0.083137
      dxz     :     0.022374
      dyz     :     0.015178
      dx2y2   :     0.020134
      dxy     :     0.008738
  8 H s       :     0.892269  s :     0.892269
      pz      :     0.006867  p :     0.036807
      px      :     0.007333
      py      :     0.022607
  9 H s       :     0.891001  s :     0.891001
      pz      :     0.011029  p :     0.036924
      px      :     0.019522
      py      :     0.006373
 10 C s       :     2.903231  s :     2.903231
      pz      :     1.058209  p :     3.139729
      px      :     1.053312
      py      :     1.028208
      dz2     :     0.018187  d :     0.079558
      dxz     :     0.011130
      dyz     :     0.013701
      dx2y2   :     0.022059
      dxy     :     0.014480
 11 C s       :     2.903231  s :     2.903231
      pz      :     1.058209  p :     3.139729
      px      :     1.053312
      py      :     1.028208
      dz2     :     0.018187  d :     0.079558
      dxz     :     0.011130
      dyz     :     0.013701
      dx2y2   :     0.022059
      dxy     :     0.014480
 12 H s       :     0.898076  s :     0.898076
      pz      :     0.022040  p :     0.037112
      px      :     0.006717
      py      :     0.008355
 13 H s       :     0.896624  s :     0.896624
      pz      :     0.008337  p :     0.036847
      px      :     0.020471
      py      :     0.008039
 14 H s       :     0.898076  s :     0.898076
      pz      :     0.022040  p :     0.037112
      px      :     0.006717
      py      :     0.008355
 15 H s       :     0.896624  s :     0.896624
      pz      :     0.008337  p :     0.036847
      px      :     0.020471
      py      :     0.008039


                      *****************************
                      * MAYER POPULATION ANALYSIS *
                      *****************************

  NA   - Mulliken gross atomic population
  ZA   - Total nuclear charge
  QA   - Mulliken gross atomic charge
  VA   - Mayer's total valence
  BVA  - Mayer's bonded valence
  FA   - Mayer's free valence

  ATOM       NA         ZA         QA         VA         BVA        FA
  0 C      6.0692     6.0000    -0.0692     3.9338     3.9338     0.0000
  1 H      0.9235     1.0000     0.0765     0.9592     0.9592     0.0000
  2 C      6.0692     6.0000    -0.0692     3.9338     3.9338     0.0000
  3 H      0.9235     1.0000     0.0765     0.9592     0.9592    -0.0000
  4 C      6.2126     6.0000    -0.2126     3.9132     3.9132     0.0000
  5 H      0.9068     1.0000     0.0932     0.9533     0.9533     0.0000
  6 H      0.8978     1.0000     0.1022     0.9477     0.9477     0.0000
  7 C      6.2126     6.0000    -0.2126     3.9132     3.9132     0.0000
  8 H      0.9068     1.0000     0.0932     0.9533     0.9533    -0.0000
  9 H      0.8978     1.0000     0.1022     0.9477     0.9477    -0.0000
 10 C      6.1694     6.0000    -0.1694     3.8972     3.8972     0.0000
 11 C      6.1694     6.0000    -0.1694     3.8972     3.8972    -0.0000
 12 H      0.9133     1.0000     0.0867     0.9528     0.9528     0.0000
 13 H      0.9074     1.0000     0.0926     0.9526     0.9526     0.0000
 14 H      0.9133     1.0000     0.0867     0.9528     0.9528    -0.0000
 15 H      0.9074     1.0000     0.0926     0.9526     0.9526     0.0000

  Mayer bond orders larger than 0.1
B(  0-C ,  1-H ) :   0.9485 B(  0-C ,  2-C ) :   1.9369 B(  0-C ,  7-C ) :   1.0209 
B(  2-C ,  3-H ) :   0.9485 B(  2-C ,  4-C ) :   1.0209 B(  4-C ,  5-H ) :   0.9538 
B(  4-C ,  6-H ) :   0.9419 B(  4-C , 10-C ) :   0.9968 B(  7-C ,  8-H ) :   0.9538 
B(  7-C ,  9-H ) :   0.9419 B(  7-C , 11-C ) :   0.9968 B( 10-C , 11-C ) :   0.9940 
B( 10-C , 12-H ) :   0.9580 B( 10-C , 13-H ) :   0.9631 B( 11-C , 14-H ) :   0.9580 
B( 11-C , 15-H ) :   0.9631 

-------
TIMINGS
-------

Total SCF time: 0 days 0 hours 0 min 10 sec 

Total time                  ....      10.308 sec
Sum of individual times     ....      10.026 sec  ( 97.3%)

Fock matrix formation       ....       9.386 sec  ( 91.1%)
  XC integration            ....       0.783 sec  (  8.3% of F)
    Basis function eval.    ....       0.278 sec  ( 35.5% of XC)
    Density eval.           ....       0.127 sec  ( 16.2% of XC)
    XC-Functional eval.     ....       0.047 sec  (  5.9% of XC)
    XC-Potential eval.      ....       0.182 sec  ( 23.2% of XC)
Diagonalization             ....       0.013 sec  (  0.1%)
Density matrix formation    ....       0.005 sec  (  0.0%)
Population analysis         ....       0.012 sec  (  0.1%)
Initial guess               ....       0.157 sec  (  1.5%)
Orbital Transformation      ....       0.000 sec  (  0.0%)
Orbital Orthonormalization  ....       0.000 sec  (  0.0%)
DIIS solution               ....       0.004 sec  (  0.0%)
SOSCF solution              ....       0.009 sec  (  0.1%)
Grid generation             ....       0.440 sec  (  4.3%)

-------------------------   --------------------
FINAL SINGLE POINT ENERGY      -234.479254407031
-------------------------   --------------------



           ************************************************************
           *        Program running with 4 parallel MPI-processes     *
           *              working on a common directory               *
           ************************************************************
------------------------------------------------------------------------------
                         ORCA SCF GRADIENT CALCULATION
------------------------------------------------------------------------------

Gradient of the Kohn-Sham DFT energy:
Kohn-Sham wavefunction type      ... RKS
Hartree-Fock exchange scaling    ...    0.200
Number of operators              ...    1
Number of atoms                  ...   16
Basis set dimensions             ...  134
Integral neglect threshold       ... 2.5e-11
Integral primitive cutoff        ... 2.5e-12

Nuclear repulsion gradient       ... done
One Electron Gradient            ... done
Pre-screening matrix             ... done
Starting the two electron gradient:
Two electron gradient done
Exchange-correlation gradient    ... done

------------------
CARTESIAN GRADIENT
------------------

   1   C   :    0.000857406   -0.000813480    0.002087263
   2   H   :   -0.001211585   -0.002631267    0.004723249
   3   C   :    0.000857412    0.000813485    0.002087238
   4   H   :   -0.001211581    0.002631260    0.004723261
   5   C   :   -0.004517379   -0.007327005   -0.003488246
   6   H   :   -0.002432462    0.006108571   -0.001388465
   7   H   :    0.005029612   -0.000593374    0.001787636
   8   C   :   -0.004517384    0.007327022   -0.003488248
   9   H   :   -0.002432475   -0.006108567   -0.001388464
  10   H   :    0.005029619    0.000593371    0.001787642
  11   C   :    0.008169955   -0.009121883   -0.007885766
  12   C   :    0.008169954    0.009121868   -0.007885795
  13   H   :    0.001233674    0.000705545    0.005916515
  14   H   :   -0.007129224    0.001301999   -0.001752168
  15   H   :    0.001233679   -0.000705533    0.005916517
  16   H   :   -0.007129220   -0.001302012   -0.001752169

Difference to translation invariance:
           :   -0.0000000000    0.0000000000    0.0000000000

Norm of the cartesian gradient     ...    0.0316694276
RMS gradient                       ...    0.0045710881
MAX gradient                       ...    0.0091218834

-------
TIMINGS
-------

Total SCF gradient time            ...        3.111 sec

One electron gradient       ....       0.033 sec  (  1.0%)
Prescreening matrices       ....       0.024 sec  (  0.8%)
Two electron gradient       ....       1.873 sec  ( 60.2%)
XC gradient                 ....       0.678 sec  ( 21.8%)


           ************************************************************
           *        Program running with 4 parallel MPI-processes     *
           *              working on a common directory               *
           ************************************************************

-------------------------------------------------------------------------------
                               ORCA SCF HESSIAN
-------------------------------------------------------------------------------

Hessian of the Kohn-Sham DFT energy:
Kohn-Sham wavefunction type                      ... RKS
Hartree-Fock exchange scaling                    ...    0.200
Number of operators                              ...    1
Number of atoms                                  ...   16
Basis set dimensions                             ...  134
Integral neglect threshold                       ... 2.5e-11
Integral primitive cutoff                        ... 2.5e-12

Setting up DFT Hessian calculations              ... 
Electron density on the grid                     ... found on disk
Electron density on the final grid               ... found on disk
Building xc-kernel on the grid                   ... done   (      0.0 sec)
Building xc-kernel on the final grid             ... done   (      0.1 sec)
                                                     done   (      0.1 sec)

Nuclear repulsion Hessian                        ... done   (      0.0 sec)

----------------------------------------------
Forming right-hand sides of CP-SCF equations     ...
----------------------------------------------
One electron integral derivatives                ... done   (      0.1 sec)
Transforming the overlap derivative matrices     ... done   (      0.0 sec)
Making the Q(x) pseudodensities                  ... done   (      0.0 sec)
Adding the E*S(x)*S(y) terms to the Hessian      ... done   (      0.0 sec)
Calculating energy weighted overlap derivatives  ... done   (      0.0 sec)
Two electron integral derivatives                ... done   (      3.1 sec)
Exchange-correlation integral derivatives        ... done   (      8.3 sec)
tr(F(y)Q(x)) contribution to the Hessian         ... done   (      0.0 sec)
Response fock operator R(S(x))                   ... done   (     10.1 sec)
XC Response fock operator R(S(x))                ... done   (      3.0 sec)
tr(F(y)S(x)) contribution to the Hessian         ... done   (      0.0 sec)
Transforming and finalizing RHSs                 ... done   (      0.0 sec)

----------------------------------------------
Solving the CP-SCF equations                     ...
----------------------------------------------
     CP-SCF ITERATION   0: 
     CP-SCF ITERATION   1:      0.002288938262
     CP-SCF ITERATION   2:      0.000133957598
     CP-SCF ITERATION   3:      0.000004618179
     CP-SCF ITERATION   4:      0.000000277347
     CP-SCF ITERATION   5:      0.000000020290
     CP-SCF ITERATION   6:      0.000000007700

                                                 ... done   (     99.6 sec)
Forming perturbed density Hessian contributions  ... done   (      0.0 sec)
Making the perturbed densities                   ... done   (      0.0 sec)
2nd integral derivative contribs                 ... done   (     15.8 sec)
Exchange-correlation Hessian                     ... done   (      7.3 sec)
Dipol derivatives                                ... done   (      0.5 sec)

Total SCF Hessian time: 0 days 0 hours 2 min 28 sec 

Writing the Hessian file to the disk             ... done


Maximum memory used throughout the entire calculation: 80.9 MB

-----------------------
VIBRATIONAL FREQUENCIES
-----------------------

Scaling factor for frequencies =  1.000000000  (already applied!)

   0:         0.00 cm**-1
   1:         0.00 cm**-1
   2:         0.00 cm**-1
   3:         0.00 cm**-1
   4:         0.00 cm**-1
   5:         0.00 cm**-1
   6:        96.74 cm**-1
   7:       182.31 cm**-1
   8:       431.19 cm**-1
   9:       454.87 cm**-1
  10:       535.15 cm**-1
  11:       690.07 cm**-1
  12:       733.12 cm**-1
  13:       805.06 cm**-1
  14:       840.99 cm**-1
  15:       906.57 cm**-1
  16:       962.08 cm**-1
  17:       968.26 cm**-1
  18:       988.98 cm**-1
  19:      1010.12 cm**-1
  20:      1077.88 cm**-1
  21:      1111.69 cm**-1
  22:      1113.90 cm**-1
  23:      1193.81 cm**-1
  24:      1214.17 cm**-1
  25:      1270.40 cm**-1
  26:      1273.55 cm**-1
  27:      1318.61 cm**-1
  28:      1366.45 cm**-1
  29:      1368.46 cm**-1
  30:      1398.69 cm**-1
  31:      1422.62 cm**-1
  32:      1425.54 cm**-1
  33:      1504.54 cm**-1
  34:      1511.64 cm**-1
  35:      1516.82 cm**-1
  36:      1540.95 cm**-1
  37:      1713.60 cm**-1
  38:      2909.97 cm**-1
  39:      2912.54 cm**-1
  40:      2936.87 cm**-1
  41:      2953.47 cm**-1
  42:      2967.76 cm**-1
  43:      2981.26 cm**-1
  44:      2982.40 cm**-1
  45:      2995.69 cm**-1
  46:      3192.95 cm**-1
  47:      3215.52 cm**-1


------------
NORMAL MODES
------------

These modes are the Cartesian displacements weighted by the diagonal matrix
M(i,i)=1/sqrt(m[i]) where m[i] is the mass of the displaced atom
Thus, these vectors are normalized but *not* orthogonal

                  0          1          2          3          4          5    
      0       0.000000   0.000000   0.000000   0.000000   0.000000   0.000000
      1       0.000000   0.000000   0.000000   0.000000   0.000000   0.000000
      2       0.000000   0.000000   0.000000   0.000000   0.000000   0.000000
      3       0.000000   0.000000   0.000000   0.000000   0.000000   0.000000
      4       0.000000   0.000000   0.000000   0.000000   0.000000   0.000000
      5       0.000000   0.000000   0.000000   0.000000   0.000000   0.000000
      6       0.000000   0.000000   0.000000   0.000000   0.000000   0.000000
      7       0.000000   0.000000   0.000000   0.000000   0.000000   0.000000
      8       0.000000   0.000000   0.000000   0.000000   0.000000   0.000000
      9       0.000000   0.000000   0.000000   0.000000   0.000000   0.000000
     10       0.000000   0.000000   0.000000   0.000000   0.000000   0.000000
     11       0.000000   0.000000   0.000000   0.000000   0.000000   0.000000
     12       0.000000   0.000000   0.000000   0.000000   0.000000   0.000000
     13       0.000000   0.000000   0.000000   0.000000   0.000000   0.000000
     14       0.000000   0.000000   0.000000   0.000000   0.000000   0.000000
     15       0.000000   0.000000   0.000000   0.000000   0.000000   0.000000
     16       0.000000   0.000000   0.000000   0.000000   0.000000   0.000000
     17       0.000000   0.000000   0.000000   0.000000   0.000000   0.000000
     18       0.000000   0.000000   0.000000   0.000000   0.000000   0.000000
     19       0.000000   0.000000   0.000000   0.000000   0.000000   0.000000
     20       0.000000   0.000000   0.000000   0.000000   0.000000   0.000000
     21       0.000000   0.000000   0.000000   0.000000   0.000000   0.000000
     22       0.000000   0.000000   0.000000   0.000000   0.000000   0.000000
     23       0.000000   0.000000   0.000000   0.000000   0.000000   0.000000
     24       0.000000   0.000000   0.000000   0.000000   0.000000   0.000000
     25       0.000000   0.000000   0.000000   0.000000   0.000000   0.000000
     26       0.000000   0.000000   0.000000   0.000000   0.000000   0.000000
     27       0.000000   0.000000   0.000000   0.000000   0.000000   0.000000
     28       0.000000   0.000000   0.000000   0.000000   0.000000   0.000000
     29       0.000000   0.000000   0.000000   0.000000   0.000000   0.000000
     30       0.000000   0.000000   0.000000   0.000000   0.000000   0.000000
     31       0.000000   0.000000   0.000000   0.000000   0.000000   0.000000
     32       0.000000   0.000000   0.000000   0.000000   0.000000   0.000000
     33       0.000000   0.000000   0.000000   0.000000   0.000000   0.000000
     34       0.000000   0.000000   0.000000   0.000000   0.000000   0.000000
     35       0.000000   0.000000   0.000000   0.000000   0.000000   0.000000
     36       0.000000   0.000000   0.000000   0.000000   0.000000   0.000000
     37       0.000000   0.000000   0.000000   0.000000   0.000000   0.000000
     38       0.000000   0.000000   0.000000   0.000000   0.000000   0.000000
     39       0.000000   0.000000   0.000000   0.000000   0.000000   0.000000
     40       0.000000   0.000000   0.000000   0.000000   0.000000   0.000000
     41       0.000000   0.000000   0.000000   0.000000   0.000000   0.000000
     42       0.000000   0.000000   0.000000   0.000000   0.000000   0.000000
     43       0.000000   0.000000   0.000000   0.000000   0.000000   0.000000
     44       0.000000   0.000000   0.000000   0.000000   0.000000   0.000000
     45       0.000000   0.000000   0.000000   0.000000   0.000000   0.000000
     46       0.000000   0.000000   0.000000   0.000000   0.000000   0.000000
     47       0.000000   0.000000   0.000000   0.000000   0.000000   0.000000
                  6          7          8          9         10         11    
      0      -0.050054  -0.075822   0.211474  -0.072778   0.062066   0.107954
      1       0.023427  -0.000801  -0.010236  -0.005219   0.174703   0.001141
      2      -0.025238  -0.014416   0.024832   0.122832   0.160547  -0.026789
      3      -0.084558  -0.316631   0.397378  -0.380391   0.143178  -0.628106
      4       0.047548  -0.031842   0.006910   0.112380   0.063648  -0.022896
      5      -0.046887  -0.031969   0.042802  -0.005102   0.245168  -0.131189
      6       0.050054  -0.075821  -0.211474  -0.072779  -0.062066   0.107954
      7       0.023427   0.000802  -0.010236   0.005219   0.174703  -0.001141
      8       0.025238  -0.014416  -0.024832   0.122831  -0.160547  -0.026790
      9       0.084560  -0.316630  -0.397378  -0.380392  -0.143178  -0.628106
     10       0.047548   0.031843   0.006910  -0.112380   0.063648   0.022896
     11       0.046888  -0.031968  -0.042803  -0.005102  -0.245168  -0.131189
     12       0.038353   0.115123   0.008061   0.053284   0.110417   0.005403
     13      -0.021079  -0.088677  -0.052864   0.183676   0.014888  -0.017703
     14       0.048796   0.069124   0.036659   0.022229  -0.108472  -0.010491
     15       0.122382   0.324857   0.271376  -0.105526  -0.007785  -0.087462
     16       0.005423  -0.017599   0.032407   0.126259   0.037590  -0.058082
     17       0.083818   0.198344   0.179790  -0.093313   0.176535  -0.110100
     18      -0.011227   0.100163   0.049983   0.047179   0.191088  -0.063177
     19      -0.122609  -0.367259  -0.394011   0.358378  -0.051246   0.136593
     20       0.136318   0.097850  -0.032158   0.020505  -0.247158   0.092666
     21      -0.038354   0.115123  -0.008061   0.053284  -0.110417   0.005403
     22      -0.021079   0.088677  -0.052864  -0.183676   0.014889   0.017703
     23      -0.048796   0.069124  -0.036659   0.022229   0.108471  -0.010491
     24      -0.122385   0.324856  -0.271375  -0.105527   0.007784  -0.087462
     25       0.005423   0.017599   0.032407  -0.126259   0.037590   0.058082
     26      -0.083820   0.198343  -0.179789  -0.093313  -0.176535  -0.110100
     27       0.011226   0.100163  -0.049984   0.047179  -0.191088  -0.063177
     28      -0.122611   0.367258  -0.394010  -0.358378  -0.051246  -0.136594
     29      -0.136318   0.097849   0.032159   0.020505   0.247157   0.092666
     30      -0.095549  -0.037903  -0.032601   0.061225   0.140277  -0.046477
     31       0.002467  -0.001965   0.079323   0.018076  -0.176064  -0.004487
     32      -0.121391  -0.056866   0.018268  -0.110915  -0.125661   0.038713
     33       0.095550  -0.037902   0.032601   0.061225  -0.140277  -0.046477
     34       0.002468   0.001965   0.079323  -0.018076  -0.176064   0.004488
     35       0.121391  -0.056865  -0.018268  -0.110915   0.125661   0.038713
     36      -0.388705  -0.147127  -0.053441  -0.147368   0.091551   0.037563
     37       0.161662   0.004696   0.082656  -0.022100  -0.080103  -0.000067
     38      -0.150622  -0.048282   0.020041  -0.077004  -0.155824   0.030015
     39      -0.041408   0.022064  -0.019733   0.088859   0.185272  -0.055733
     40      -0.149398   0.029030   0.078733  -0.049058  -0.131073   0.033661
     41      -0.420485  -0.190228  -0.020068  -0.251962  -0.202720   0.101546
     42       0.388706  -0.147124   0.053441  -0.147368  -0.091552   0.037562
     43       0.161663  -0.004695   0.082656   0.022099  -0.080104   0.000067
     44       0.150622  -0.048281  -0.020041  -0.077004   0.155824   0.030015
     45       0.041408   0.022064   0.019733   0.088858  -0.185272  -0.055733
     46      -0.149397  -0.029031   0.078733   0.049058  -0.131072  -0.033661
     47       0.420487  -0.190225   0.020069  -0.251962   0.202720   0.101546
                 12         13         14         15         16         17    
      0       0.084614  -0.006582  -0.004235  -0.026594  -0.035954  -0.095525
      1      -0.067401   0.005522   0.016292  -0.056769   0.060694  -0.001901
      2      -0.081719  -0.027985   0.108996   0.089034   0.150656  -0.026860
      3       0.187001  -0.002671  -0.137472   0.062403   0.021710   0.671584
      4      -0.007432  -0.088491   0.002772  -0.290178   0.149245  -0.000614
      5      -0.103424   0.034427   0.104143   0.258386   0.116013   0.096535
      6      -0.084614  -0.006582  -0.004235   0.026594  -0.035954   0.095525
      7      -0.067401  -0.005522  -0.016291  -0.056769  -0.060694  -0.001900
      8       0.081719  -0.027985   0.108996  -0.089034   0.150656   0.026859
      9      -0.187002  -0.002671  -0.137472  -0.062404   0.021705  -0.671584
     10      -0.007431   0.088491  -0.002772  -0.290178  -0.149245  -0.000613
     11       0.103424   0.034427   0.104143  -0.258386   0.116012  -0.096535
     12       0.065586  -0.009554  -0.082739   0.081678   0.063886   0.001910
     13       0.053865  -0.085104  -0.125839   0.148815  -0.116800   0.000888
     14       0.061521   0.032628   0.011457   0.011738  -0.124814   0.003629
     15      -0.235166  -0.295057  -0.173240   0.211512   0.066455   0.002370
     16      -0.049977  -0.163929  -0.146096   0.186186  -0.183473  -0.002523
     17      -0.133136  -0.037966   0.049966   0.045056  -0.490429  -0.007515
     18       0.136736   0.044820  -0.130095   0.081617   0.095452  -0.056797
     19       0.400665   0.216877  -0.058865  -0.018500   0.080809   0.009001
     20      -0.071024  -0.069025   0.093313   0.011314  -0.178393   0.102153
     21      -0.065586  -0.009554  -0.082739  -0.081677   0.063886  -0.001911
     22       0.053865   0.085104   0.125839   0.148815   0.116800   0.000887
     23      -0.061521   0.032628   0.011457  -0.011738  -0.124814  -0.003629
     24       0.235165  -0.295058  -0.173239  -0.211512   0.066454  -0.002370
     25      -0.049977   0.163930   0.146096   0.186186   0.183473  -0.002524
     26       0.133136  -0.037966   0.049966  -0.045056  -0.490428   0.007517
     27      -0.136736   0.044821  -0.130095  -0.081617   0.095452   0.056797
     28       0.400664  -0.216879   0.058866  -0.018499  -0.080809   0.009002
     29       0.071024  -0.069025   0.093313  -0.011315  -0.178394  -0.102153
     30       0.073966   0.052185   0.088201  -0.088151  -0.045616   0.002264
     31      -0.015209  -0.057437  -0.123670  -0.049931   0.086484  -0.001324
     32       0.002538   0.031699  -0.147599   0.100006   0.025582  -0.028332
     33      -0.073966   0.052185   0.088201   0.088151  -0.045616  -0.002264
     34      -0.015209   0.057437   0.123669  -0.049931  -0.086485  -0.001324
     35      -0.002538   0.031699  -0.147599  -0.100006   0.025582   0.028332
     36      -0.223873  -0.308582   0.405033  -0.280559   0.025640   0.099273
     37       0.002272   0.165495  -0.302108  -0.217200   0.199254   0.003827
     38       0.023560  -0.015820  -0.117277   0.178943  -0.023074  -0.038148
     39       0.180959   0.131948   0.021155  -0.102331   0.001466  -0.020826
     40      -0.003009  -0.215542   0.023903  -0.162147   0.155845   0.018148
     41      -0.275624  -0.344645   0.193311   0.028734  -0.036866   0.055496
     42       0.223872  -0.308583   0.405033   0.280558   0.025640  -0.099273
     43       0.002271  -0.165495   0.302108  -0.217200  -0.199254   0.003827
     44      -0.023560  -0.015819  -0.117278  -0.178943  -0.023073   0.038148
     45      -0.180959   0.131948   0.021156   0.102331   0.001466   0.020826
     46      -0.003008   0.215541  -0.023902  -0.162147  -0.155846   0.018150
     47       0.275624  -0.344647   0.193311  -0.028735  -0.036866  -0.055497
                 18         19         20         21         22         23    
      0       0.042239   0.064412   0.014039   0.052972   0.001612  -0.008570
      1       0.006161  -0.063497   0.050519   0.017401   0.022198  -0.016950
      2       0.055315  -0.117002  -0.069737   0.068683   0.037484   0.003112
      3      -0.163010  -0.107249   0.087432  -0.044060   0.053696  -0.029501
      4       0.112608  -0.036268   0.287214  -0.064525   0.407579  -0.439939
      5      -0.043010  -0.161464  -0.212341   0.106532  -0.203489   0.276197
      6       0.042238  -0.064412  -0.014039  -0.052972   0.001610  -0.008570
      7      -0.006161  -0.063496   0.050519   0.017402  -0.022198   0.016950
      8       0.055316   0.117002   0.069737  -0.068684   0.037482   0.003112
      9      -0.163007   0.107251  -0.087431   0.044058   0.053697  -0.029500
     10      -0.112608  -0.036266   0.287213  -0.064515  -0.407582   0.439939
     11      -0.043009   0.161465   0.212341  -0.106527  -0.203493   0.276196
     12      -0.099765   0.008768   0.079535   0.106652   0.060364   0.007640
     13       0.013797   0.139434  -0.034596  -0.045250   0.031974   0.021958
     14      -0.064426  -0.012117  -0.110363   0.063390  -0.074560  -0.025945
     15       0.229660   0.266080   0.201177  -0.220622   0.041681   0.215428
     16       0.116871   0.202787  -0.065479  -0.150921   0.044858   0.023611
     17       0.098850   0.013075  -0.436736  -0.111353   0.048455  -0.290859
     18      -0.117011  -0.086135   0.116954  -0.036177   0.133939  -0.036870
     19      -0.366512  -0.164113   0.032409   0.338125  -0.069918  -0.029896
     20      -0.015226   0.156593  -0.172739   0.286262  -0.197360   0.054469
     21      -0.099765  -0.008768  -0.079534  -0.106654   0.060361   0.007640
     22      -0.013796   0.139434  -0.034596  -0.045249  -0.031975  -0.021958
     23      -0.064426   0.012117   0.110363  -0.063388  -0.074562  -0.025945
     24       0.229659  -0.266082  -0.201176   0.220621   0.041688   0.215428
     25      -0.116870   0.202788  -0.065479  -0.150920  -0.044863  -0.023611
     26       0.098850  -0.013075   0.436736   0.111351   0.048457  -0.290859
     27      -0.117010   0.086135  -0.116954   0.036174   0.133941  -0.036870
     28       0.366511  -0.164116   0.032409   0.338123   0.069929   0.029896
     29      -0.015226  -0.156592   0.172738  -0.286257  -0.197369   0.054468
     30       0.068773   0.010334  -0.079870  -0.094862  -0.063116   0.002321
     31       0.015300  -0.062201  -0.020729   0.015842  -0.196041  -0.043353
     32       0.022479  -0.136926   0.040094  -0.063466   0.055737   0.010195
     33       0.068773  -0.010335   0.079870   0.094863  -0.063113   0.002321
     34      -0.015301  -0.062201  -0.020729   0.015837   0.196041   0.043353
     35       0.022480   0.136925  -0.040094   0.063464   0.055739   0.010195
     36      -0.094210   0.341803  -0.067736   0.231653  -0.168883  -0.100507
     37       0.286067  -0.117087  -0.103784  -0.087768  -0.298712  -0.170279
     38      -0.060311  -0.148055   0.066687  -0.054885   0.099505   0.062930
     39       0.010559  -0.118821  -0.119309  -0.169037  -0.046842  -0.065122
     40      -0.309640  -0.048992  -0.093092   0.108183  -0.182422  -0.198374
     41      -0.139607   0.238554   0.079195   0.240660   0.030548   0.047858
     42      -0.094211  -0.341801   0.067735  -0.231649  -0.168891  -0.100507
     43      -0.286068  -0.117085  -0.103783  -0.087776   0.298710   0.170279
     44      -0.060310   0.148056  -0.066686   0.054883   0.099507   0.062930
     45       0.010559   0.118820   0.119309   0.169038  -0.046837  -0.065122
     46       0.309639  -0.048995  -0.093092   0.108178   0.182426   0.198375
     47      -0.139608  -0.238552  -0.079195  -0.240661   0.030540   0.047858
                 24         25         26         27         28         29    
      0       0.035474   0.025210  -0.003329  -0.003108  -0.004948  -0.012732
      1      -0.011875   0.013867  -0.038233   0.006852  -0.056828  -0.013491
      2       0.021526   0.027446   0.029744   0.026606   0.038722   0.007902
      3      -0.110541  -0.008522  -0.021431  -0.003290   0.036903   0.017681
      4      -0.169487   0.020796  -0.256745   0.028812   0.365331  -0.053009
      5       0.101773   0.016621   0.168220   0.011801  -0.232627   0.039930
      6       0.035474  -0.025210  -0.003329   0.003108   0.004948  -0.012732
      7       0.011875   0.013867   0.038232   0.006853  -0.056828   0.013492
      8       0.021526  -0.027445   0.029745  -0.026606  -0.038721   0.007902
      9      -0.110540   0.008521  -0.021431   0.003290  -0.036903   0.017681
     10       0.169487   0.020801   0.256745   0.028813   0.365331   0.053007
     11       0.101773  -0.016618   0.168220  -0.011801   0.232627   0.039929
     12      -0.047659   0.002399   0.054079  -0.043574   0.034637   0.007520
     13       0.004204  -0.004689   0.021888  -0.003916   0.007809   0.011855
     14      -0.005728  -0.016165  -0.055147   0.015972  -0.065355  -0.078701
     15      -0.015779   0.153542  -0.180466   0.129406  -0.207255  -0.050981
     16       0.038113  -0.011742   0.035526  -0.006593   0.027241   0.024614
     17       0.146832  -0.256164   0.323457  -0.221043   0.359104   0.079944
     18       0.217312  -0.291234   0.074943  -0.077288  -0.089294  -0.249706
     19      -0.093230   0.008778   0.017709  -0.042324  -0.003637  -0.063987
     20      -0.448251   0.482584  -0.084481   0.068227   0.145414   0.357020
     21      -0.047659  -0.002398   0.054079   0.043574  -0.034636   0.007520
     22      -0.004203  -0.004689  -0.021888  -0.003916   0.007809  -0.011856
     23      -0.005728   0.016164  -0.055148  -0.015972   0.065355  -0.078702
     24      -0.015778  -0.153546  -0.180462  -0.129407   0.207254  -0.050982
     25      -0.038113  -0.011742  -0.035526  -0.006593   0.027241  -0.024614
     26       0.146831   0.256171   0.323450   0.221045  -0.359103   0.079948
     27       0.217312   0.291236   0.074936   0.077290   0.089292  -0.249706
     28       0.093230   0.008777  -0.017709  -0.042324  -0.003636   0.063987
     29      -0.448250  -0.482587  -0.084470  -0.068229  -0.145412   0.357021
     30       0.001967   0.073842  -0.052685   0.013450   0.014934   0.010983
     31       0.016708  -0.000739  -0.051919   0.010384   0.044390  -0.036108
     32       0.002157   0.040177   0.001817  -0.050976  -0.012187   0.044898
     33       0.001967  -0.073843  -0.052683  -0.013450  -0.014934   0.010983
     34      -0.016708  -0.000738   0.051919   0.010384   0.044390   0.036107
     35       0.002158  -0.040177   0.001818   0.050976   0.012187   0.044898
     36      -0.101870  -0.064336   0.220854  -0.150109  -0.130718  -0.050020
     37      -0.194693   0.125960   0.386097  -0.478436  -0.225496  -0.055074
     38       0.086964   0.006933  -0.177932   0.136179   0.098032   0.055725
     39       0.132633   0.022173  -0.070852   0.146947  -0.066091   0.264269
     40       0.283599  -0.244357  -0.048215   0.339823  -0.108280   0.391016
     41      -0.101262  -0.053922   0.051765  -0.089864   0.054834  -0.223980
     42      -0.101871   0.064340   0.220852   0.150110   0.130717  -0.050020
     43       0.194693   0.125953  -0.386098  -0.478438  -0.225495   0.055074
     44       0.086964  -0.006936  -0.177931  -0.136179  -0.098031   0.055725
     45       0.132633  -0.022174  -0.070850  -0.146949   0.066093   0.264268
     46      -0.283598  -0.244356   0.048218   0.339824  -0.108283  -0.391014
     47      -0.101262   0.053923   0.051764   0.089865  -0.054835  -0.223979
                 30         31         32         33         34         35    
      0       0.016178  -0.002619   0.015308  -0.005140  -0.004064  -0.004382
      1       0.009000  -0.001263   0.064391   0.000345  -0.011423  -0.005184
      2      -0.047307   0.020851  -0.109048   0.006922   0.003101   0.010789
      3      -0.011128  -0.008487  -0.040202  -0.001978   0.003782  -0.000784
      4      -0.084175  -0.034959  -0.448480   0.025552   0.009314   0.037857
      5       0.009674   0.048106   0.215440  -0.007550  -0.008181  -0.015453
      6      -0.016178  -0.002619  -0.015308   0.005140  -0.004064   0.004382
      7       0.009000   0.001263   0.064391   0.000345   0.011423  -0.005184
      8       0.047307   0.020852   0.109048  -0.006922   0.003101  -0.010789
      9       0.011128  -0.008487   0.040202   0.001978   0.003782   0.000784
     10      -0.084175   0.034955  -0.448480   0.025551  -0.009314   0.037857
     11      -0.009674   0.048104  -0.215440   0.007550  -0.008181   0.015453
[...]
     12       0.020714   0.044085   0.018271   0.027503   0.008618   0.028224
     13       0.016103  -0.033403  -0.034158   0.038316   0.026050   0.045043
     14      -0.070116  -0.083164  -0.052965   0.019101   0.020295   0.023145
     15      -0.055893  -0.264688  -0.140027  -0.361535  -0.186927  -0.402136
     16       0.025675  -0.027533  -0.055267  -0.087128  -0.039722  -0.092443
     17       0.092385   0.357730   0.059126  -0.229942  -0.133613  -0.240576
     18      -0.164576  -0.071780  -0.047071  -0.004668   0.005382   0.002666
     19      -0.042667   0.008218  -0.070729  -0.429329  -0.231351  -0.476829
     20       0.236921   0.115223   0.043545  -0.001018  -0.017209  -0.009676
     21      -0.020729   0.044086  -0.018272  -0.027500  -0.009304   0.028010
     22       0.016100   0.033406  -0.034156   0.038310   0.027139  -0.044398
     23       0.070148  -0.083146   0.052963  -0.019101  -0.020853   0.022649
     24       0.055962  -0.264698   0.140034   0.361471   0.196669  -0.397495
     25       0.025673   0.027544  -0.055266  -0.087096  -0.041952   0.091438
     26      -0.092473   0.357695  -0.059105   0.229933   0.139442  -0.237298
     27       0.164641  -0.071741   0.047081   0.004683  -0.005439   0.002519
     28      -0.042686  -0.008226  -0.070737  -0.429265  -0.242903   0.471099
     29      -0.236991   0.115165  -0.043552   0.001027   0.017449  -0.009267
     30      -0.062775   0.019499   0.016719   0.018346  -0.028257   0.013872
     31      -0.068755   0.094929   0.041699  -0.017127   0.031155  -0.003664
     32       0.055382  -0.005028  -0.005171  -0.009358   0.022499  -0.009650
     33       0.062774   0.019510  -0.016718  -0.018347   0.027920   0.014561
     34      -0.068747  -0.094939   0.041695  -0.017128   0.031061   0.004425
     35      -0.055393  -0.005032   0.005170   0.009354  -0.022255  -0.010195
     36       0.090281  -0.229451  -0.084712  -0.211983   0.396851  -0.123138
     37       0.153073  -0.301001  -0.194968   0.124638  -0.177100   0.068897
     38      -0.037979   0.163848   0.086619  -0.033891   0.052892  -0.018717
     39       0.253611  -0.153385  -0.044403  -0.035449   0.063412  -0.025191
     40       0.482649  -0.228966  -0.121689   0.108917  -0.211268   0.062960
     41      -0.223954   0.112304   0.001068   0.213872  -0.378474   0.133691
     42      -0.090228  -0.229460   0.084709   0.211967  -0.393780  -0.132807
     43       0.153055   0.300965  -0.194961   0.124628  -0.175383  -0.073214
     44       0.037949   0.163831  -0.086618   0.033925  -0.052489  -0.020029
     45      -0.253628  -0.153443   0.044378   0.035478  -0.062840  -0.026758
     46       0.482646   0.229085  -0.121658   0.108915  -0.209717  -0.068109
     47       0.223972   0.112355  -0.001058  -0.213849   0.375135   0.142905
                 36         37         38         39         40         41    
      0       0.002379  -0.007016  -0.000295   0.000383  -0.000165   0.000193
      1      -0.005775  -0.477616  -0.000861   0.000317   0.000031   0.000124
      2      -0.001064   0.060796   0.001286   0.000066   0.000285  -0.000281
      3      -0.000876   0.055929   0.004559   0.001160   0.000903  -0.000866
      4      -0.002385   0.147785  -0.005631  -0.001925  -0.000933   0.001496
      5      -0.006292  -0.389483  -0.006506   0.001950  -0.002023   0.002839
      6       0.002379  -0.007031  -0.000296  -0.000383   0.000165   0.000193
      7       0.005775   0.477617   0.000861   0.000317   0.000031  -0.000124
      8      -0.001065   0.060786   0.001286  -0.000067  -0.000285  -0.000281
      9      -0.000875   0.055929   0.004559  -0.001162  -0.000903  -0.000866
     10       0.002388  -0.147789   0.005631  -0.001927  -0.000933  -0.001495
     11      -0.006291  -0.389479  -0.006507  -0.001948   0.002023   0.002838
     12       0.008129  -0.001910   0.045959  -0.045740   0.002214   0.005465
     13       0.014572  -0.057203   0.007271  -0.007805  -0.007596  -0.013870
     14       0.009603  -0.007460   0.026609  -0.026785   0.001410   0.003336
     15      -0.136795  -0.002831   0.037910  -0.039960  -0.019239  -0.035316
     16      -0.026801  -0.097952  -0.129280   0.132842   0.089740   0.165589
     17      -0.070757  -0.259446   0.026817  -0.028644  -0.012069  -0.022823
     18       0.008898   0.020525  -0.589914   0.588585  -0.007810  -0.028158
     19      -0.144161  -0.024711   0.039142  -0.043887  -0.002228  -0.002008
     20      -0.015334  -0.022550  -0.352728   0.350184  -0.004996  -0.017974
     21       0.008128  -0.001911   0.045974   0.045723  -0.002213   0.005462
     22      -0.014569   0.057203  -0.007272  -0.007800  -0.007597   0.013872
     23       0.009601  -0.007461   0.026621   0.026778  -0.001410   0.003334
     24      -0.136775  -0.002825   0.037919   0.039941   0.019239  -0.035315
     25       0.026790   0.097946   0.129332   0.132802   0.089754  -0.165615
     26      -0.070749  -0.259450   0.026826   0.028633   0.012069  -0.022824
     27       0.008893   0.020520  -0.590107  -0.588362   0.007794  -0.028132
     28       0.144139   0.024706  -0.039189  -0.043904  -0.002228   0.002009
     29      -0.015337  -0.022541  -0.352872  -0.350081   0.004987  -0.017960
     30      -0.039875   0.010503  -0.003070   0.004542  -0.034019  -0.032298
     31       0.033424   0.014010  -0.000243   0.000311   0.026633   0.027419
     32       0.027793  -0.002523  -0.004918   0.005594   0.021563   0.021413
     33      -0.039876   0.010503  -0.003072  -0.004541   0.034025  -0.032307
     34      -0.033421  -0.014009   0.000243   0.000311   0.026634  -0.027417
     35       0.027784  -0.002523  -0.004919  -0.005592  -0.021558   0.021397
     36       0.421036  -0.078013   0.004066  -0.003490  -0.047280  -0.047071
     37      -0.210437  -0.017825   0.017969  -0.020992  -0.156494  -0.157471
     38       0.068069   0.016247   0.044103  -0.047420  -0.447668  -0.443584
     39       0.057666  -0.014299   0.035854  -0.051733   0.445502   0.428849
     40      -0.232644  -0.004228  -0.014870   0.019485  -0.157288  -0.153075
     41      -0.408593   0.049823   0.014524  -0.020847   0.196386   0.189992
     42       0.420988  -0.078018   0.004060   0.003481   0.047223  -0.047004
     43       0.210400   0.017823  -0.017973  -0.020983  -0.156530   0.157461
     44       0.068130   0.016238   0.044103   0.047388   0.447682  -0.443466
     45       0.057719  -0.014301   0.035882   0.051731  -0.445514   0.428884
     46       0.232638   0.004222   0.014878   0.019481  -0.157266   0.153062
     47      -0.408527   0.049823   0.014541   0.020855  -0.196460   0.190069
                 42         43         44         45         46         47    
      0       0.000242  -0.000576  -0.000565   0.000107   0.006686  -0.006710
      1      -0.001314   0.002774   0.002865  -0.001280  -0.030368   0.038271
      2      -0.000993   0.002709   0.003442  -0.001048  -0.049984   0.051231
      3      -0.002315   0.005866   0.007122  -0.001561  -0.078410   0.077927
      4       0.012491  -0.026758  -0.031543   0.008631   0.365629  -0.368854
      5       0.018532  -0.040912  -0.047839   0.012501   0.594076  -0.592488
      6      -0.000242  -0.000575   0.000565   0.000107  -0.006686  -0.006708
      7      -0.001315  -0.002770   0.002868   0.001280  -0.030371  -0.038267
      8       0.000994   0.002705  -0.003445  -0.001048   0.049990   0.051227
      9       0.002316   0.005856  -0.007128  -0.001562   0.078408   0.077907
     10       0.012497   0.026717  -0.031575  -0.008635   0.365658   0.368804
     11      -0.018542  -0.040852   0.047889   0.012507  -0.594148  -0.592431
     12      -0.003564  -0.017195   0.020423   0.009138   0.001729   0.000842
     13       0.025216   0.053282  -0.049923  -0.012744  -0.005335  -0.004755
     14      -0.002659  -0.011923   0.013654   0.005889   0.000746  -0.000978
     15       0.059946   0.124358  -0.116557  -0.029156  -0.011130  -0.009504
     16      -0.301501  -0.631146   0.593043   0.150203   0.057517   0.050113
     17       0.046941   0.099253  -0.092386  -0.023880  -0.007344  -0.003807
     18      -0.013368   0.085661  -0.128247  -0.079117  -0.010786  -0.001162
     19       0.005979   0.005802  -0.001463   0.001074   0.000221  -0.001342
     20      -0.007259   0.050786  -0.075443  -0.045330  -0.005568  -0.000249
     21       0.003558  -0.017218  -0.020402   0.009135  -0.001729   0.000842
     22       0.025201  -0.053349  -0.049862   0.012740  -0.005335   0.004755
     23       0.002655  -0.011939  -0.013640   0.005888  -0.000746  -0.000978
     24      -0.059898   0.124486   0.116387  -0.029139   0.011126  -0.009504
     25      -0.301326   0.631934   0.592307  -0.150150   0.057511  -0.050118
     26      -0.046907   0.099362   0.092258  -0.023869   0.007342  -0.003806
     27       0.013386   0.085818   0.128152  -0.079104   0.010786  -0.001164
     28       0.005978  -0.005799  -0.001449  -0.001078   0.000221   0.001342
     29       0.007271   0.050884   0.075393  -0.045325   0.005569  -0.000250
     30       0.031984   0.000844   0.020639   0.039434   0.000814   0.000953
     31       0.003107   0.007771  -0.002323  -0.000469   0.000057  -0.000340
     32       0.050351   0.018972   0.020673   0.050957   0.000026  -0.000262
     33      -0.031972   0.000823  -0.020640   0.039426  -0.000814   0.000954
     34       0.003115  -0.007776  -0.002311   0.000463   0.000057   0.000340
     35      -0.050354   0.018959  -0.020704   0.050961  -0.000026  -0.000262
     36      -0.033067  -0.018355  -0.010244  -0.030268  -0.000623  -0.000282
     37      -0.167732  -0.082415  -0.056705  -0.159741  -0.000552   0.000851
     38      -0.459369  -0.229268  -0.150578  -0.429983   0.000785   0.004018
     39      -0.349094   0.004166  -0.234309  -0.439934  -0.006719  -0.008416
     40       0.128936  -0.000104   0.085067   0.162627   0.001939   0.003113
     41      -0.140158   0.003854  -0.094969  -0.178191  -0.002395  -0.003147
     42       0.033010  -0.018320   0.010252  -0.030212   0.000623  -0.000282
     43      -0.167772   0.082402  -0.056837   0.159767  -0.000551  -0.000851
     44       0.459389  -0.229193   0.150914  -0.429973  -0.000785   0.004019
     45       0.349001   0.004369   0.234314  -0.439897   0.006716  -0.008416
     46       0.128881   0.000176   0.085057  -0.162588   0.001937  -0.003112
     47       0.140171   0.003937   0.095003  -0.178242   0.002395  -0.003148


-----------
IR SPECTRUM
-----------

 Mode    freq (cm**-1)   T**2         TX         TY         TZ
-------------------------------------------------------------------
   7:       185.34    0.118110  ( -0.168267  -0.000029  -0.299659)
   8:       417.01    0.335711  ( -0.000058  -0.579405  -0.000070)
   9:       444.90    1.704946  ( -1.157452   0.000031  -0.604359)
  10:       529.59    0.014309  ( -0.000032  -0.119619   0.000034)
  11:       696.28    0.413214  (  0.008193  -0.642765   0.000562)
  12:       697.78   27.328454  (  5.209317   0.001083   0.437570)
  13:       763.58    1.986811  ( -0.718766   0.000070  -1.212512)
  14:       816.50    0.408126  ( -0.631748   0.000013   0.094976)
  15:       887.27    1.997827  ( -0.000147   1.413445  -0.000033)
  16:       942.76    0.839629  (  0.653564  -0.000030  -0.642249)
  17:       957.79    2.735543  ( -1.647625  -0.000045   0.144479)
  18:       974.23    0.027420  ( -0.000166   0.165590  -0.000103)
  19:       998.29    0.517630  ( -0.000212   0.719465  -0.000081)
  20:      1049.75    0.525550  (  0.000025   0.724949  -0.000010)
  21:      1078.86    0.562959  ( -0.289008  -0.000156   0.692411)
  22:      1096.68    1.444882  (  0.000134  -1.202032  -0.000155)
  23:      1170.24    0.956800  ( -0.924789  -0.000007   0.318694)
  24:      1191.58    0.614067  (  0.736553   0.000027   0.267500)
  25:      1244.43    1.267021  ( -0.080051  -0.000623  -1.122770)
  26:      1250.89    4.863762  (  0.000006  -2.205394   0.000468)
  27:      1292.37    0.980402  (  0.000080  -0.990153  -0.000142)
  28:      1341.53    0.094915  ( -0.068207   0.000020  -0.300438)
  29:      1345.52    0.234957  (  0.000079  -0.484724   0.000084)
  30:      1365.32    1.584234  ( -0.000018  -1.258664  -0.000002)
  31:      1389.01    0.738549  (  0.503330  -0.000170  -0.696568)
  32:      1417.82    0.037948  (  0.000084   0.194801   0.000041)
  33:      1494.31    0.048130  ( -0.000024  -0.219385   0.000018)
  34:      1503.61    0.340137  (  0.022365  -0.582692   0.010353)
  35:      1503.66    4.153873  ( -1.848853  -0.007085  -0.857651)
  36:      1525.36    0.322104  (  0.413459  -0.000045  -0.388787)
  37:      1714.13    1.596073  ( -0.638145   0.000090   1.090341)
  38:      2995.10   49.185336  (  6.291916  -0.000604   3.097924)
  39:      2998.17   13.032495  ( -0.001111  -3.610055  -0.000253)
  40:      3041.17   20.434157  (  0.000583   4.520416   0.000448)
  41:      3054.77   54.609565  ( -5.452709   0.000449   4.987738)
  42:      3072.14   24.005650  (  0.000715   4.899556  -0.000482)
  43:      3081.52    8.214153  ( -1.741442  -0.004990   2.276293)
  44:      3081.94   51.067372  (  0.001173  -7.146143  -0.001983)
  45:      3098.94   69.366952  (  5.366983  -0.000587   6.368866)
  46:      3160.00    9.179592  (  0.000021  -3.029784   0.000406)
  47:      3183.24   39.604905  ( -1.211885   0.000182   6.175454)

The first frequency considered to be a vibration is 7
The total number of vibrations considered is 41


--------------------------
THERMOCHEMISTRY AT 298.15K
--------------------------

Temperature         ... 298.15 K
Pressure            ... 1.00 atm
Total Mass          ... 82.15 AMU

Throughout the following assumptions are being made:
  (1) The electronic state is orbitally nondegenerate
  (2) There are no thermally accessible electronically excited states
  (3) Hindered rotations indicated by low frequency modes are not
      treated as such but are treated as vibrations and this may
      cause some error
  (4) All equations used are the standard statistical mechanics
      equations for an ideal gas
  (5) All vibrations are strictly harmonic

freq.     185.34  E(vib)   ...       0.37 
freq.     417.01  E(vib)   ...       0.18 
freq.     444.90  E(vib)   ...       0.17 
freq.     529.59  E(vib)   ...       0.13 
freq.     696.28  E(vib)   ...       0.07 
freq.     697.78  E(vib)   ...       0.07 
freq.     763.58  E(vib)   ...       0.06 
freq.     816.50  E(vib)   ...       0.05 
freq.     887.27  E(vib)   ...       0.04 
freq.     942.76  E(vib)   ...       0.03 
freq.     957.79  E(vib)   ...       0.03 
freq.     974.23  E(vib)   ...       0.03 
freq.     998.29  E(vib)   ...       0.02 
freq.    1049.75  E(vib)   ...       0.02 
freq.    1078.86  E(vib)   ...       0.02 
freq.    1096.68  E(vib)   ...       0.02 
freq.    1170.24  E(vib)   ...       0.01 
freq.    1191.58  E(vib)   ...       0.01 
freq.    1244.43  E(vib)   ...       0.01 
freq.    1250.89  E(vib)   ...       0.01 
freq.    1292.37  E(vib)   ...       0.01 
freq.    1341.53  E(vib)   ...       0.01 
freq.    1345.52  E(vib)   ...       0.01 
freq.    1365.32  E(vib)   ...       0.01 
freq.    1389.01  E(vib)   ...       0.00 
freq.    1417.82  E(vib)   ...       0.00 
freq.    1494.31  E(vib)   ...       0.00 
freq.    1503.61  E(vib)   ...       0.00 
freq.    1503.66  E(vib)   ...       0.00 
freq.    1525.36  E(vib)   ...       0.00 
freq.    1714.13  E(vib)   ...       0.00 
freq.    2995.10  E(vib)   ...       0.00 
freq.    2998.17  E(vib)   ...       0.00 
freq.    3041.17  E(vib)   ...       0.00 
freq.    3054.77  E(vib)   ...       0.00 
freq.    3072.14  E(vib)   ...       0.00 
freq.    3081.52  E(vib)   ...       0.00 
freq.    3081.94  E(vib)   ...       0.00 
freq.    3098.94  E(vib)   ...       0.00 
freq.    3160.00  E(vib)   ...       0.00 
freq.    3183.24  E(vib)   ...       0.00 

------------
INNER ENERGY
------------

The inner energy is: U= E(el) + E(ZPE) + E(vib) + E(rot) + E(trans)
    E(el)   - is the total energy from the electronic structure calculation
              = E(kin-el) + E(nuc-el) + E(el-el) + E(nuc-nuc)
    E(ZPE)  - the the zero temperature vibrational energy from the frequency calculation
    E(vib)  - the the finite temperature correction to E(ZPE) due to population
              of excited vibrational states
    E(rot)  - is the rotational thermal energy
    E(trans)- is the translational thermal energy

Summary of contributions to the inner energy U:
Electronic energy                ...   -234.48071047 Eh
Zero point energy                ...      0.14592428 Eh      91.57 kcal/mol
Thermal vibrational correction   ...      0.00218478 Eh       1.37 kcal/mol
Thermal rotational correction    ...      0.00141627 Eh       0.89 kcal/mol
Thermal translational correction ...      0.00141627 Eh       0.89 kcal/mol
-----------------------------------------------------------------------
Total thermal energy                   -234.32976887 Eh


Summary of corrections to the electronic energy:
(perhaps to be used in another calculation)
Total thermal correction                  0.00501732 Eh       3.15 kcal/mol
Non-thermal (ZPE) correction              0.14592428 Eh      91.57 kcal/mol
-----------------------------------------------------------------------
Total correction                          0.15094160 Eh      94.72 kcal/mol


--------
ENTHALPY
--------

The enthalpy is H = U + kB*T
                kB is Boltzmann's constant
Total free energy                 ...   -234.32976887 Eh 
Thermal Enthalpy correction       ...      0.00094421 Eh       0.59 kcal/mol
-----------------------------------------------------------------------
Total Enthalpy                    ...   -234.32882466 Eh


Note: Rotational entropy computed according to Herzberg 
Infrared and Raman Spectra, Chapter V,1, Van Nostrand Reinhold, 1945 
Point Group:  C1, Symmetry Number:   1  
Rotational constants in cm-1:     0.153986     0.151702     0.086272 

Vibrational entropy computed according to the QRRHO of S. Grimme
Chem.Eur.J. 2012 18 9955


-------
ENTROPY
-------

The entropy contributions are T*S = T*(S(el)+S(vib)+S(rot)+S(trans))
     S(el)   - electronic entropy
     S(vib)  - vibrational entropy
     S(rot)  - rotational entropy
     S(trans)- translational entropy
The entropies will be listed as mutliplied by the temperature to get
units of energy

Electronic entropy                ...      0.00000000 Eh      0.00 kcal/mol
Vibrational entropy               ...      0.00320735 Eh      2.01 kcal/mol
Rotational entropy                ...      0.01244107 Eh      7.81 kcal/mol
Translational entropy             ...      0.01859270 Eh     11.67 kcal/mol
-----------------------------------------------------------------------
Final entropy term                ...      0.03424112 Eh     21.49 kcal/mol


-------------------
GIBBS FREE ENTHALPY
-------------------

The Gibbs free enthalpy is G = H - T*S

Total enthalpy                    ...   -234.32882466 Eh 
Total entropy correction          ...     -0.03424112 Eh    -21.49 kcal/mol
-----------------------------------------------------------------------
Final Gibbs free enthalpy         ...   -234.36306578 Eh

For completeness - the Gibbs free enthalpy minus the electronic energy
G-E(el)                           ...      0.11764469 Eh     73.82 kcal/mol


Timings for individual modules:

Sum of individual times         ...      343.229 sec (=   5.720 min)
GTO integral calculation        ...        2.490 sec (=   0.041 min)   0.7 %
SCF iterations                  ...       32.183 sec (=   0.536 min)   9.4 %
SCF Gradient evaluation         ...       12.709 sec (=   0.212 min)   3.7 %
Geometry relaxation             ...        0.498 sec (=   0.008 min)   0.1 %
Analytical frequency calculation...      295.349 sec (=   4.922 min)  86.1 %
                             ****ORCA TERMINATED NORMALLY****
TOTAL RUN TIME: 0 days 0 hours 5 minutes 44 seconds 136 msec
