
                                 *****************
                                 * O   R   C   A *
                                 *****************

           --- An Ab Initio, DFT and Semiempirical electronic structure package ---

                  #######################################################
                  #                        -***-                        #
                  #          Department of theory and spectroscopy      #
                  #               Directorship: Frank Neese             #
                  #        Max Planck Institute fuer Kohlenforschung    #
                  #                Kaiser Wilhelm Platz 1               #
                  #                 D-45470 Muelheim/Ruhr               #
                  #                      Germany                        #
                  #                                                     #
                  #                  All rights reserved                #
                  #                        -***-                        #
                  #######################################################


                         Program Version 4.1.0  - RELEASE  -


 With contributions from (in alphabetic order):
   Daniel Aravena         : Magnetic Properties
   Michael Atanasov       : Ab Initio Ligand Field Theory
   Alexander A. Auer      : GIAO ZORA
   Ute Becker             : Parallelization
   Giovanni Bistoni       : ED, Open-shell LED
   Martin Brehm           : Molecular dynamics
   Dmytro Bykov           : SCF Hessian
   Vijay G. Chilkuri      : MRCI spin determinant printing
   Dipayan Datta          : RHF DLPNO-CCSD density
   Achintya Kumar Dutta   : EOM-CC, STEOM-CC
   Dmitry Ganyushin       : Spin-Orbit,Spin-Spin,Magnetic field MRCI
   Miquel Garcia          : C-PCM Hessian
   Yang Guo               : DLPNO-NEVPT2, CIM, IAO-localization
   Andreas Hansen         : Spin unrestricted coupled pair/coupled cluster methods
   Benjamin Helmich-Paris : CASSCF linear response (MC-RPA)
   Lee Huntington         : MR-EOM, pCC
   Robert Izsak           : Overlap fitted RIJCOSX, COSX-SCS-MP3, EOM
   Christian Kollmar      : KDIIS, OOCD, Brueckner-CCSD(T), CCSD density
   Simone Kossmann        : Meta GGA functionals, TD-DFT gradient, OOMP2, MP2 Hessian
   Martin Krupicka        : AUTO-CI
   Lucas Lang             : DCDCAS
   Dagmar Lenk            : GEPOL surface, SMD
   Dimitrios Liakos       : Extrapolation schemes; parallel MDCI
   Dimitrios Manganas     : ROCIS; embedding schemes
   Dimitrios Pantazis     : SARC Basis sets
   Taras Petrenko         : DFT Hessian,TD-DFT gradient, ASA, ECA, R-Raman, ABS, FL, XAS/XES, NRVS
   Peter Pinski           : DLPNO-MP2, DLPNO-MP2 Gradient
   Christoph Reimann      : Effective Core Potentials
   Marius Retegan         : Local ZFS, SOC
   Christoph Riplinger    : Optimizer, TS searches, QM/MM, DLPNO-CCSD(T), (RO)-DLPNO pert. Triples
   Tobias Risthaus        : Range-separated hybrids, TD-DFT gradient, RPA, STAB
   Michael Roemelt        : Restricted open shell CIS
   Masaaki Saitow         : Open-shell DLPNO
   Barbara Sandhoefer     : DKH picture change effects
   Avijit Sen             : IP-ROCIS
   Kantharuban Sivalingam : CASSCF convergence, NEVPT2, FIC-MRCI
   Bernardo de Souza      : ESD, SOC TD-DFT
   Georgi Stoychev        : AutoAux, RI-MP2 NMR
   Willem Van den Heuvel  : Paramagnetic NMR
   Boris Wezisla          : Elementary symmetry handling
   Frank Wennmohs         : Technical directorship


 We gratefully acknowledge several colleagues who have allowed us to
 interface, adapt or use parts of their codes:
   Stefan Grimme, W. Hujo, H. Kruse,             : VdW corrections, initial TS optimization,
                  C. Bannwarth                     DFT functionals, gCP, sTDA/sTD-DF
   Ed Valeev                                     : LibInt (2-el integral package), F12 methods
   Garnet Chan, S. Sharma, J. Yang, R. Olivares  : DMRG
   Ulf Ekstrom                                   : XCFun DFT Library
   Mihaly Kallay                                 : mrcc  (arbitrary order and MRCC methods)
   Andreas Klamt, Michael Diedenhofen            : otool_cosmo (COSMO solvation model)
   Jiri Pittner, Ondrej Demel                    : Mk-CCSD
   Frank Weinhold                                : gennbo (NPA and NBO analysis)
   Christopher J. Cramer and Donald G. Truhlar   : smd solvation model
   Lars Goerigk                                  : TD-DFT with DH, B97 family of functionals
   V. Asgeirsson, H. Jonsson                     : NEB implementation
   FAccTs GmbH                                   : IRC, NEB, NEB-TS, Multilevel


 Your calculation uses the libint2 library for the computation of 2-el integrals
 For citations please refer to: http://libint.valeyev.net

 This ORCA versions uses:
   CBLAS   interface :  Fast vector & matrix operations
   LAPACKE interface :  Fast linear algebra routines
   SCALAPACK package :  Parallel linear algebra routines




***************************************
The coordinates will be read from file: 01_hcn_iso_ts.xyz
***************************************


----- Orbital basis set information -----
Your calculation utilizes the basis: def2-TZVPP
   F. Weigend and R. Ahlrichs, Phys. Chem. Chem. Phys. 7, 3297 (2005).

----- AuxC basis set information -----
Your calculation utilizes the auxiliary basis: def2-TZVPP/C
  H-La, Hf-Rn : A. Hellweg, C. Hattig, S. Hofener and W. Klopper, Theor. Chem. Acc. 117, 587 (2007).
        Ce-Lu : J. Chmela and M. E. Harding, Mol. Phys. (2018).

================================================================================
                                        WARNINGS
                       Please study these warnings very carefully!
================================================================================


WARNING: MDCI localization with Augmented Hessian Foster-Boys
  ===> : Switching off randomization!

WARNING: Post HF methods need fully converged wavefunctions
  ===> : Setting SCFConvForced true
         You can overwrite this default with %scf ConvForced false 


INFO   : the flag for use of LIBINT has been found!

================================================================================
                                       INPUT FILE
================================================================================
NAME = 09_hcn_iso_ts_dlpnoccsdt.inp
|  1> ! DLPNO-CCSD(T) def2-TZVPP def2-TZVPP/C TightSCF
|  2> %maxcore 10000
|  3> 
|  4> *xyzfile 0 1 01_hcn_iso_ts.xyz
|  5> 
|  6>                          ****END OF INPUT****
================================================================================

                       ****************************
                       * Single Point Calculation *
                       ****************************

---------------------------------
CARTESIAN COORDINATES (ANGSTROEM)
---------------------------------
  C      0.025462    0.500982    0.156303
  H     -0.676884    0.500982   -1.041454
  N      0.694848    0.500982   -0.853735

----------------------------
CARTESIAN COORDINATES (A.U.)
----------------------------
  NO LB      ZA    FRAG     MASS         X           Y           Z
   0 C     6.0000    0    12.011    0.048117    0.946719    0.295371
   1 H     1.0000    0     1.008   -1.279125    0.946719   -1.968063
   2 N     7.0000    0    14.007    1.313072    0.946719   -1.613326

--------------------------------
INTERNAL COORDINATES (ANGSTROEM)
--------------------------------
 C      0   0   0     0.000000000000     0.00000000     0.00000000
 H      1   0   0     1.388493173995     0.00000000     0.00000000
 N      1   2   0     1.211715476164    63.92040484     0.00000000

---------------------------
INTERNAL COORDINATES (A.U.)
---------------------------
 C      0   0   0     0.000000000000     0.00000000     0.00000000
 H      1   0   0     2.623871837670     0.00000000     0.00000000
 N      1   2   0     2.289810402184    63.92040484     0.00000000

---------------------
BASIS SET INFORMATION
---------------------
There are 3 groups of distinct atoms

 Group   1 Type C   : 11s6p2d1f contracted to 5s3p2d1f pattern {62111/411/11/1}
 Group   2 Type H   : 5s2p1d contracted to 3s2p1d pattern {311/11/1}
 Group   3 Type N   : 11s6p2d1f contracted to 5s3p2d1f pattern {62111/411/11/1}

Atom   0C    basis set group =>   1
Atom   1H    basis set group =>   2
Atom   2N    basis set group =>   3
-------------------------------
AUXILIARY BASIS SET INFORMATION
-------------------------------
There are 3 groups of distinct atoms

 Group   1 Type C   : 8s6p5d3f1g contracted to 8s6p4d3f1g pattern {11111111/111111/2111/111/1}
 Group   2 Type H   : 4s3p2d1f contracted to 4s3p2d1f pattern {1111/111/11/1}
 Group   3 Type N   : 8s6p5d3f1g contracted to 8s6p4d3f1g pattern {11111111/111111/2111/111/1}

Atom   0C    basis set group =>   1
Atom   1H    basis set group =>   2
Atom   2N    basis set group =>   3

Checking for AutoStart:
The File: 09_hcn_iso_ts_dlpnoccsdt.gbw exists
Trying to determine its content:
     ... Fine, the file contains calculation information
     ... Fine, the calculation information was read
     ... Fine, the file contains a basis set
     ... Fine, the basis set was read
     ... Fine, the file contains a geometry
     ... Fine, the geometry was read
     ... Fine, the file contains a set of orbitals
     ... Fine, the orbitals can be read
     => possible old guess file was deleted
     => GBW file was renamed to GES file
     => GES file is set as startup file
     => Guess is set to MORead
     ... now leaving AutoStart

------------------------------------------------------------------------------
                           ORCA GTO INTEGRAL CALCULATION
------------------------------------------------------------------------------

                         BASIS SET STATISTICS AND STARTUP INFO

 # of primitive gaussian shells          ...   48
 # of primitive gaussian functions       ...  108
 # of contracted shells                  ...   28
 # of contracted basis functions         ...   76
 Highest angular momentum                ...    3
 Maximum contraction depth               ...    6
 Integral package used                   ... LIBINT
 Integral threshhold            Thresh   ...  2.500e-11
 Primitive cut-off              TCut     ...  2.500e-12


------------------------------ INTEGRAL EVALUATION ----------------------------


 * One electron integrals 
 Pre-screening matrix                    ... done
 Shell pair data                         ... done (   0.000 sec)

-------------------------------------------------------------------------------
                                 ORCA SCF
-------------------------------------------------------------------------------

------------
SCF SETTINGS
------------
Hamiltonian:
 Ab initio Hamiltonian  Method          .... Hartree-Fock(GTOs)


General Settings:
 Integral files         IntName         .... 09_hcn_iso_ts_dlpnoccsdt
 Hartree-Fock type      HFTyp           .... RHF
 Total Charge           Charge          ....    0
 Multiplicity           Mult            ....    1
 Number of Electrons    NEL             ....   14
 Basis Dimension        Dim             ....   76
 Nuclear Repulsion      ENuc            ....     23.3043035270 Eh

Convergence Acceleration:
 DIIS                   CNVDIIS         .... on
   Start iteration      DIISMaxIt       ....    12
   Startup error        DIISStart       ....  0.200000
   # of expansion vecs  DIISMaxEq       ....     5
   Bias factor          DIISBfac        ....   1.050
   Max. coefficient     DIISMaxC        ....  10.000
 Newton-Raphson         CNVNR           .... off
 SOSCF                  CNVSOSCF        .... on
   Start iteration      SOSCFMaxIt      ....   150
   Startup grad/error   SOSCFStart      ....  0.003300
 Level Shifting         CNVShift        .... on
   Level shift para.    LevelShift      ....    0.2500
   Turn off err/grad.   ShiftErr        ....    0.0010
 Zerner damping         CNVZerner       .... off
 Static damping         CNVDamp         .... on
   Fraction old density DampFac         ....    0.7000
   Max. Damping (<1)    DampMax         ....    0.9800
   Min. Damping (>=0)   DampMin         ....    0.0000
   Turn off err/grad.   DampErr         ....    0.1000
 Fernandez-Rico         CNVRico         .... off

SCF Procedure:
 Maximum # iterations   MaxIter         ....   125
 SCF integral mode      SCFMode         .... Direct
   Integral package                     .... LIBINT
 Reset frequency        DirectResetFreq ....    20
 Integral Threshold     Thresh          ....  2.500e-11 Eh
 Primitive CutOff       TCut            ....  2.500e-12 Eh

Convergence Tolerance:
 Convergence Check Mode ConvCheckMode   .... Total+1el-Energy
 Convergence forced     ConvForced      .... 1
 Energy Change          TolE            ....  1.000e-08 Eh
 1-El. energy change                    ....  1.000e-05 Eh
 Orbital Gradient       TolG            ....  1.000e-05
 Orbital Rotation angle TolX            ....  1.000e-05
 DIIS Error             TolErr          ....  5.000e-07


Diagonalization of the overlap matrix:
Smallest eigenvalue                        ... 6.797e-04
Time for diagonalization                   ...    0.056 sec
Threshold for overlap eigenvalues          ... 1.000e-08
Number of eigenvalues below threshold      ... 0
Time for construction of square roots      ...    0.001 sec
Total time needed                          ...    0.058 sec

---------------------
INITIAL GUESS: MOREAD
---------------------
Guess MOs are being read from file: 09_hcn_iso_ts_dlpnoccsdt.ges
Input Geometry matches current geometry (good)
Input basis set matches current basis set (good)
MOs were renormalized
MOs were reorthogonalized (Cholesky)
                      ------------------
                      INITIAL GUESS DONE (   0.0 sec)
                      ------------------
--------------
SCF ITERATIONS
--------------
ITER       Energy         Delta-E        Max-DP      RMS-DP      [F,P]     Damp
               ***  Starting incremental Fock matrix formation  ***
                      *** Initiating the SOSCF procedure ***
                      *** Re-Reading the Fockian *** 
                      *** Removing any level shift *** 
ITER      Energy       Delta-E        Grad      Rot      Max-DP    RMS-DP
  0    -92.83155096 -92.8315509598  0.000001  0.000001  0.000001  0.000000
               *** Restarting incremental Fock matrix formation ***
                 **** Energy Check signals convergence ****
              ***Rediagonalizing the Fockian in SOSCF/NRSCF***

               *****************************************************
               *                     SUCCESS                       *
               *           SCF CONVERGED AFTER   1 CYCLES          *
               *****************************************************


----------------
TOTAL SCF ENERGY
----------------

Total Energy       :          -92.83155096 Eh           -2526.07492 eV

Components:
Nuclear Repulsion  :           23.30430353 Eh             634.14234 eV
Electronic Energy  :         -116.13585449 Eh           -3160.21726 eV
One Electron Energy:         -171.13620239 Eh           -4656.85282 eV
Two Electron Energy:           55.00034790 Eh            1496.63555 eV

Virial components:
Potential Energy   :         -185.32361131 Eh           -5042.91184 eV
Kinetic Energy     :           92.49206035 Eh            2516.83692 eV
Virial Ratio       :            2.00367048


---------------
SCF CONVERGENCE
---------------

  Last Energy change         ...   -1.3458e-11  Tolerance :   1.0000e-08
  Last MAX-Density change    ...    5.1264e-07  Tolerance :   1.0000e-07
  Last RMS-Density change    ...    3.5930e-08  Tolerance :   5.0000e-09
  Last Orbital Gradient      ...    3.6625e-07  Tolerance :   1.0000e-05
  Last Orbital Rotation      ...    4.9987e-07  Tolerance :   1.0000e-05

             **** THE GBW FILE WAS UPDATED (09_hcn_iso_ts_dlpnoccsdt.gbw) ****
             **** DENSITY FILE WAS UPDATED (09_hcn_iso_ts_dlpnoccsdt.scfp.tmp) ****
             **** ENERGY FILE WAS UPDATED (09_hcn_iso_ts_dlpnoccsdt.en.tmp) ****
----------------
ORBITAL ENERGIES
----------------

  NO   OCC          E(Eh)            E(eV) 
   0   2.0000     -15.648981      -425.8304 
   1   2.0000     -11.315520      -307.9110 
   2   2.0000      -1.286049       -34.9952 
   3   2.0000      -0.676431       -18.4066 
   4   2.0000      -0.620207       -16.8767 
   5   2.0000      -0.522006       -14.2045 
   6   2.0000      -0.498562       -13.5666 
   7   0.0000       0.093039         2.5317 
   8   0.0000       0.141033         3.8377 
   9   0.0000       0.146647         3.9905 
  10   0.0000       0.256416         6.9774 
  11   0.0000       0.301273         8.1981 
  12   0.0000       0.334261         9.0957 
  13   0.0000       0.354065         9.6346 
  14   0.0000       0.405493        11.0340 
  15   0.0000       0.478139        13.0108 
  16   0.0000       0.550442        14.9783 
  17   0.0000       0.562523        15.3070 
  18   0.0000       0.663341        18.0504 
  19   0.0000       0.668437        18.1891 
  20   0.0000       0.804885        21.9020 
  21   0.0000       0.934494        25.4289 
  22   0.0000       1.016147        27.6508 
  23   0.0000       1.060058        28.8457 
  24   0.0000       1.108917        30.1752 
  25   0.0000       1.123001        30.5584 
  26   0.0000       1.296062        35.2676 
  27   0.0000       1.401798        38.1449 
  28   0.0000       1.412816        38.4447 
  29   0.0000       1.485061        40.4106 
  30   0.0000       1.550283        42.1853 
  31   0.0000       1.643704        44.7275 
  32   0.0000       1.709519        46.5184 
  33   0.0000       1.743844        47.4524 
  34   0.0000       1.761842        47.9422 
  35   0.0000       1.958370        53.2900 
  36   0.0000       2.131344        57.9968 
  37   0.0000       2.368337        64.4457 
  38   0.0000       2.499067        68.0031 
  39   0.0000       2.639485        71.8240 
  40   0.0000       2.782905        75.7267 
  41   0.0000       2.842451        77.3470 
  42   0.0000       2.908402        79.1416 
  43   0.0000       2.974449        80.9389 
  44   0.0000       2.996065        81.5271 
  45   0.0000       3.210975        87.3751 
  46   0.0000       3.254819        88.5681 
  47   0.0000       3.261936        88.7618 
  48   0.0000       3.351420        91.1968 
  49   0.0000       3.463765        94.2538 
  50   0.0000       3.492351        95.0317 
  51   0.0000       3.525074        95.9221 
  52   0.0000       3.668324        99.8202 
  53   0.0000       3.704258       100.7980 
  54   0.0000       3.855480       104.9129 
  55   0.0000       3.934333       107.0586 
  56   0.0000       3.966448       107.9325 
  57   0.0000       4.204501       114.4103 
  58   0.0000       4.235001       115.2402 
  59   0.0000       4.326616       117.7332 
  60   0.0000       4.502538       122.5203 
  61   0.0000       4.668125       127.0261 
  62   0.0000       4.730451       128.7221 
  63   0.0000       4.762950       129.6065 
  64   0.0000       5.084101       138.3454 
  65   0.0000       5.116946       139.2392 
  66   0.0000       5.254996       142.9957 
  67   0.0000       5.329843       145.0324 
  68   0.0000       5.431266       147.7923 
  69   0.0000       5.698236       155.0569 
  70   0.0000       5.709545       155.3646 
  71   0.0000       5.777748       157.2205 
  72   0.0000       5.981489       162.7646 
  73   0.0000       6.210364       168.9926 
  74   0.0000      22.979811       625.3125 
  75   0.0000      33.085909       900.3134 

                    ********************************
                    * MULLIKEN POPULATION ANALYSIS *
                    ********************************

-----------------------
MULLIKEN ATOMIC CHARGES
-----------------------
   0 C :   -0.064761
   1 H :    0.235683
   2 N :   -0.170922
Sum of atomic charges:   -0.0000000

--------------------------------
MULLIKEN REDUCED ORBITAL CHARGES
--------------------------------
  0 C s       :     3.759293  s :     3.759293
      pz      :     0.860801  p :     2.191128
      px      :     0.692975
      py      :     0.637352
      dz2     :     0.024161  d :     0.105663
      dxz     :     0.034374
      dyz     :     0.034449
      dx2y2   :     0.003035
      dxy     :     0.009644
      f0      :     0.002115  f :     0.008677
      f+1     :     0.001623
      f-1     :     0.001973
      f+2     :     0.000727
      f-2     :     0.001601
      f+3     :     0.000230
      f-3     :     0.000409
  1 H s       :     0.706585  s :     0.706585
      pz      :     0.015072  p :     0.054082
      px      :     0.021397
      py      :     0.017613
      dz2     :     0.000480  d :     0.003649
      dxz     :     0.001118
      dyz     :     0.000210
      dx2y2   :     0.000977
      dxy     :     0.000864
  2 N s       :     3.769623  s :     3.769623
      pz      :     1.164524  p :     3.337540
      px      :     0.898414
      py      :     1.274601
      dz2     :     0.017926  d :     0.061098
      dxz     :     0.009575
      dyz     :     0.011409
      dx2y2   :     0.013395
      dxy     :     0.008793
      f0      :     0.000354  f :     0.002661
      f+1     :     0.000403
      f-1     :     0.000387
      f+2     :     0.000243
      f-2     :     0.000407
      f+3     :     0.000580
      f-3     :     0.000287


                     *******************************
                     * LOEWDIN POPULATION ANALYSIS *
                     *******************************

----------------------
LOEWDIN ATOMIC CHARGES
----------------------
   0 C :   -0.225600
   1 H :    0.166745
   2 N :    0.058855

-------------------------------
LOEWDIN REDUCED ORBITAL CHARGES
-------------------------------
  0 C s       :     3.308932  s :     3.308932
      pz      :     1.117708  p :     2.582859
      px      :     0.807555
      py      :     0.657596
      dz2     :     0.077489  d :     0.288236
      dxz     :     0.118320
      dyz     :     0.058505
      dx2y2   :     0.011056
      dxy     :     0.022866
      f0      :     0.008380  f :     0.045573
      f+1     :     0.012784
      f-1     :     0.006960
      f+2     :     0.005160
      f-2     :     0.009742
      f+3     :     0.001079
      f-3     :     0.001468
  1 H s       :     0.634222  s :     0.634222
      pz      :     0.059162  p :     0.170899
      px      :     0.073842
      py      :     0.037894
      dz2     :     0.005171  d :     0.028134
      dxz     :     0.009459
      dyz     :     0.001345
      dx2y2   :     0.007512
      dxy     :     0.004648
  2 N s       :     3.326252  s :     3.326252
      pz      :     1.333140  p :     3.491500
      px      :     0.982004
      py      :     1.176356
      dz2     :     0.037878  d :     0.113760
      dxz     :     0.030346
      dyz     :     0.013094
      dx2y2   :     0.025004
      dxy     :     0.007438
      f0      :     0.001135  f :     0.009633
      f+1     :     0.004030
      f-1     :     0.000779
      f+2     :     0.001279
      f-2     :     0.001089
      f+3     :     0.001102
      f-3     :     0.000219


                      *****************************
                      * MAYER POPULATION ANALYSIS *
                      *****************************

  NA   - Mulliken gross atomic population
  ZA   - Total nuclear charge
  QA   - Mulliken gross atomic charge
  VA   - Mayer's total valence
  BVA  - Mayer's bonded valence
  FA   - Mayer's free valence

  ATOM       NA         ZA         QA         VA         BVA        FA
  0 C      6.0648     6.0000    -0.0648     2.5888     2.5888     0.0000
  1 H      0.7643     1.0000     0.2357     0.9979     0.9979    -0.0000
  2 N      7.1709     7.0000    -0.1709     2.6792     2.6792     0.0000

  Mayer bond orders larger than 0.1
B(  0-C ,  1-H ) :   0.4537 B(  0-C ,  2-N ) :   2.1350 B(  1-H ,  2-N ) :   0.5442 


-------
TIMINGS
-------

Total SCF time: 0 days 0 hours 0 min 0 sec 

Total time                  ....       0.993 sec
Sum of individual times     ....       0.739 sec  ( 74.4%)

Fock matrix formation       ....       0.728 sec  ( 73.3%)
Diagonalization             ....       0.001 sec  (  0.1%)
Density matrix formation    ....       0.000 sec  (  0.0%)
Population analysis         ....       0.002 sec  (  0.2%)
Initial guess               ....       0.008 sec  (  0.8%)
Orbital Transformation      ....       0.000 sec  (  0.0%)
Orbital Orthonormalization  ....       0.006 sec  (  0.6%)
DIIS solution               ....       0.000 sec  (  0.0%)
SOSCF solution              ....       0.001 sec  (  0.1%)


------------------------------------------------------------------------------- 
                              ORCA-MATRIX DRIVEN CI                            
------------------------------------------------------------------------------- 


Wavefunction type
-----------------
Correlation treatment                      ...      CCSD     
Single excitations                         ... ON
Orbital optimization                       ... OFF
Calculation of Z vector                    ... OFF
Calculation of Brueckner orbitals          ... OFF
Perturbative triple excitations            ... ON
Calculation of F12 correction              ... OFF
Frozen core treatment                      ... chemical core (4 el)
Reference Wavefunction                     ... RHF
  Internal Orbitals:     2 ...    6 (  5 MO's/ 10 electrons)
  Virtual  Orbitals:     7 ...   75 ( 69 MO's              )
Number of AO's                             ...     76
Number of electrons                        ...     14
Number of correlated electrons             ...     10

Algorithmic settings
--------------------
Integral transformation                    ... All integrals via the RI transformation
K(C) Formation                             ... RI-DLPNO
   PNO-Integral Storage                    ... ON DISK
   PNO occupation number cut-off           ... 3.330e-07
   Singles PNO occupation number cut-off   ... 9.990e-09
   PNO Mulliken prescreening cut-off       ... 1.000e-03
   Domain cut-off (Mulliken population)    ... 1.000e-03
   PNO Normalization                       ...    1
Maximum number of iterations               ...        50
Convergence tolerance (max. residuum)      ... 1.000e-05
Level shift for amplitude update           ... 2.000e-01
Maximum number of DIIS vectors             ...         7
DIIS turned on at iteration                ...         0
Damping before turning on DIIS             ...     0.500
Damping after turning on DIIS              ...     0.000
Pair specific amplitude update             ... OFF
Natural orbital iterations                 ... OFF
Perturbative natural orbital generation    ... OFF
Printlevel                                 ... 2

Singles Fock matrix elements calculated using PNOs.

Memory handling:
----------------
Maximum memory for working arrays          ...  10000 MB
Data storage in matrix containers          ... UNCOMPRESSED
Data type for integral storage             ... DOUBLE
In-Core Storage of quantities:
   Amplitudes+Sigma Vector      ... NO
   J+K operators                ... NO
   DIIS vectors                 ... NO
   3-external integrals         ... NO
   4-external integrals         ... NO

Localization treatment:
-----------------------
Localization option                        ...    6
Localization threshhold                    ... -1.0e+00
Using relative localization threshhold     ... 1.0e-08
Neglect threshold for strong pairs         ... 1.000e-04 Eh
Prescreening threshold for very weak pairs ... 1.000e-06 Eh

Initializing the integral package          ... done
Localizing the valence orbitals
------------------------------------------------------------------------------
                           ORCA ORBITAL LOCALIZATION
------------------------------------------------------------------------------

Input orbitals are from                  ... 09_hcn_iso_ts_dlpnoccsdt.proc0.gbw
Output orbitals are to                   ... 09_hcn_iso_ts_dlpnoccsdt.proc0.loc
Max. number of iterations                ... 128
Localizations seeded randomly            ... off
Convergence tolerance                    ... 1.000e-06
Using relative localization threshhold   ... 1.000e-08
Treshold for strong local MOs            ... 9.500e-01
Treshold for bond MOs                    ... 8.500e-01
Operator                                 ... 0
Orbital range for localization           ... 2 to 6
Localization criterion                   ... FOSTER-BOYS (AUGMENTED HESSIAN)
Doing the dipole integrals     ... o.k.
Initial value of the localization sum :    15.728844
ITERATION   0 : L=   18.3665287668 DL=  2.64e+00 (AVERGE_DL)=    0.5135839600 
ITERATION   1 : L=   18.6094960967 DL=  2.43e-01 (AVERGE_DL)=    0.1558740934 
ITERATION   2 : L=   18.6099294889 DL=  4.33e-04 (AVERGE_DL)=    0.0065832528 
ITERATION   3 : L=   18.6099398847 DL=  1.04e-05 (AVERGE_DL)=    0.0010196008 
ITERATION   4 : L=   18.6099402673 DL=  3.83e-07 (AVERGE_DL)=    0.0001956053 
LOCALIZATION SUM CONVERGED

------------------------------------------------------
AUGMENTED HESSIAN OPTIMIZATION OF FOSTER-BOYS ORBITALS
------------------------------------------------------

Spin operator:           0
Orbital window:          2 to 6
Number of iterations:    128
Gradient tolerance:      1.000e-06
Number of pairs:         10
Davidson threshold:      2000
Diagonalization method:  LAPACK
Iter:    0   L: 18.6099402673   Grad. norm: 3.896618e-04
   *** Likely close to a maximum now. ***
       Augmented Hessian eigenvalues:  1.78e-08 -2.65e+00 -5.54e+00 -7.21e+00 ... 
Iter:    1   L: 18.6099402762   Grad. norm: 6.457971e-09
LOCALIZATION HAS CONVERGED.

Eigenvalues of the Hessian:
  0 -2.646e+00
  1 -5.540e+00
  2 -7.215e+00
  3 -8.771e+00
  4 -1.046e+01
  5 -1.536e+01
  6 -1.734e+01
  7 -1.883e+01
  8 -1.945e+01
  9 -5.473e+01


------------------------------------------------------------------------------- 
                    LOCALIZED MOLECULAR ORBITAL COMPOSITIONS                   
------------------------------------------------------------------------------- 

The Mulliken populations for each LMO on each atom are computed
The LMO`s will be ordered according to atom index and type
  (A) Strongly localized MO`s have populations of >=0.950 on one atom
  (B) Two center bond orbitals have populations of >=0.850 on two atoms
  (C) Other MO`s are considered to be `delocalized`

FOUND  -   2 strongly local MO`s
       -   2 two center bond MO`s
       -   1 significantly delocalized MO`s

Rather strongly localized orbitals:
MO   3:   2N  -   0.986372
MO   2:   0C  -   1.009751
Bond-like localized orbitals:
MO   5:   2N  -   0.621098  and   0C  -   0.378088
MO   4:   2N  -   0.621098  and   0C  -   0.378088
More delocalized orbitals:
MO   6:  0C - 0.256 1H - 0.366 2N - 0.379
Localized MO's were stored in: 09_hcn_iso_ts_dlpnoccsdt.proc0.loc

Localizing the core orbitals
------------------------------------------------------------------------------
                           ORCA ORBITAL LOCALIZATION
------------------------------------------------------------------------------

Input orbitals are from                  ... 09_hcn_iso_ts_dlpnoccsdt.proc0.loc
Output orbitals are to                   ... 09_hcn_iso_ts_dlpnoccsdt.proc0.loc
Max. number of iterations                ... 128
Localizations seeded randomly            ... off
Convergence tolerance                    ... 1.000e-06
Using relative localization threshhold   ... 1.000e-08
Treshold for strong local MOs            ... 9.500e-01
Treshold for bond MOs                    ... 8.500e-01
Operator                                 ... 0
Orbital range for localization           ... 0 to 1
Localization criterion                   ... FOSTER-BOYS (AUGMENTED HESSIAN)
Doing the dipole integrals     ... o.k.
Initial value of the localization sum :     6.207268
ITERATION   0 : L=    6.2072715234 DL=  3.27e-06 (AVERGE_DL)=    0.0018089646 
ITERATION   1 : L=    6.2072715234 DL=  0.00e+00 (AVERGE_DL)=    0.0000000000 
LOCALIZATION SUM CONVERGED

------------------------------------------------------
AUGMENTED HESSIAN OPTIMIZATION OF FOSTER-BOYS ORBITALS
------------------------------------------------------

Spin operator:           0
Orbital window:          0 to 1
Number of iterations:    128
Gradient tolerance:      1.000e-06
Number of pairs:         1
Davidson threshold:      2000
Diagonalization method:  LAPACK
Iter:    0   L: 6.2072715234   Grad. norm: 3.354250e-19
   *** Likely close to a maximum now. ***
       Augmented Hessian eigenvalues:  5.37e-39 -2.10e+01
Iter:    1   L: 6.2072715234   Grad. norm: 0.000000e+00
LOCALIZATION HAS CONVERGED.

Eigenvalues of the Hessian:
  0 -2.096e+01


------------------------------------------------------------------------------- 
                    LOCALIZED MOLECULAR ORBITAL COMPOSITIONS                   
------------------------------------------------------------------------------- 

The Mulliken populations for each LMO on each atom are computed
The LMO`s will be ordered according to atom index and type
  (A) Strongly localized MO`s have populations of >=0.950 on one atom
  (B) Two center bond orbitals have populations of >=0.850 on two atoms
  (C) Other MO`s are considered to be `delocalized`

FOUND  -   2 strongly local MO`s
       -   0 two center bond MO`s
       -   0 significantly delocalized MO`s

Rather strongly localized orbitals:
MO   1:   2N  -   0.999615
MO   0:   0C  -   1.000692
Localized MO's were stored in: 09_hcn_iso_ts_dlpnoccsdt.proc0.loc

Warning: internal orbitals are localized - no re-canonicalization of internal orbitals

--------------------------
CLOSED-SHELL FOCK OPERATOR
--------------------------

<ss|ss>:         4095 b            6 skpd (  0.1%)    0.001 s ( 0.000 ms/b)
<ss|sp>:         9360 b            2 skpd (  0.0%)    0.008 s ( 0.001 ms/b)
<ss|sd>:         5850 b            2 skpd (  0.0%)    0.005 s ( 0.001 ms/b)
<ss|sf>:         2340 b            0 skpd (  0.0%)    0.003 s ( 0.001 ms/b)
<ss|pp>:         3240 b            0 skpd (  0.0%)    0.004 s ( 0.001 ms/b)
<ss|pd>:         3600 b            1 skpd (  0.0%)    0.005 s ( 0.001 ms/b)
<ss|pf>:         1440 b            0 skpd (  0.0%)    0.002 s ( 0.002 ms/b)
<ss|dd>:         1350 b            0 skpd (  0.0%)    0.003 s ( 0.002 ms/b)
<ss|df>:          900 b            0 skpd (  0.0%)    0.002 s ( 0.002 ms/b)
<ss|ff>:          270 b            0 skpd (  0.0%)    0.001 s ( 0.003 ms/b)
<sp|sp>:         5460 b            0 skpd (  0.0%)    0.006 s ( 0.001 ms/b)
<sp|sd>:         6760 b            0 skpd (  0.0%)    0.009 s ( 0.001 ms/b)
<sp|sf>:         2704 b            0 skpd (  0.0%)    0.006 s ( 0.002 ms/b)
<sp|pp>:         3744 b            0 skpd (  0.0%)    0.007 s ( 0.002 ms/b)
<sp|pd>:         4160 b            0 skpd (  0.0%)    0.010 s ( 0.002 ms/b)
<sp|pf>:         1664 b            0 skpd (  0.0%)    0.006 s ( 0.004 ms/b)
<sp|dd>:         1560 b            0 skpd (  0.0%)    0.005 s ( 0.003 ms/b)
<sp|df>:         1040 b            0 skpd (  0.0%)    0.004 s ( 0.004 ms/b)
<sp|ff>:          312 b            0 skpd (  0.0%)    0.002 s ( 0.006 ms/b)
<sd|sd>:         2145 b            0 skpd (  0.0%)    0.004 s ( 0.002 ms/b)
<sd|sf>:         1690 b            0 skpd (  0.0%)    0.004 s ( 0.002 ms/b)
<sd|pp>:         2340 b            0 skpd (  0.0%)    0.007 s ( 0.003 ms/b)
<sd|pd>:         2600 b            0 skpd (  0.0%)    0.010 s ( 0.004 ms/b)
<sd|pf>:         1040 b            0 skpd (  0.0%)    0.006 s ( 0.006 ms/b)
<sd|dd>:          975 b            0 skpd (  0.0%)    0.005 s ( 0.005 ms/b)
<sd|df>:          650 b            0 skpd (  0.0%)    0.005 s ( 0.008 ms/b)
<sd|ff>:          195 b            0 skpd (  0.0%)    0.002 s ( 0.012 ms/b)
<sf|sf>:          351 b            0 skpd (  0.0%)    0.002 s ( 0.005 ms/b)
<sf|pp>:          936 b            0 skpd (  0.0%)    0.006 s ( 0.006 ms/b)
<sf|pd>:         1040 b            0 skpd (  0.0%)    0.008 s ( 0.007 ms/b)
<sf|pf>:          416 b            0 skpd (  0.0%)    0.006 s ( 0.013 ms/b)
<sf|dd>:          390 b            0 skpd (  0.0%)    0.003 s ( 0.008 ms/b)
<sf|df>:          260 b            0 skpd (  0.0%)    0.004 s ( 0.015 ms/b)
<sf|ff>:           78 b            0 skpd (  0.0%)    0.002 s ( 0.024 ms/b)
<pp|pp>:          666 b            0 skpd (  0.0%)    0.003 s ( 0.005 ms/b)
<pp|pd>:         1440 b            0 skpd (  0.0%)    0.009 s ( 0.006 ms/b)
<pp|pf>:          576 b            0 skpd (  0.0%)    0.006 s ( 0.010 ms/b)
<pp|dd>:          540 b            0 skpd (  0.0%)    0.004 s ( 0.008 ms/b)
<pp|df>:          360 b            0 skpd (  0.0%)    0.004 s ( 0.012 ms/b)
<pp|ff>:          108 b            0 skpd (  0.0%)    0.002 s ( 0.019 ms/b)
<pd|pd>:          820 b            0 skpd (  0.0%)    0.007 s ( 0.009 ms/b)
<pd|pf>:          640 b            0 skpd (  0.0%)    0.008 s ( 0.012 ms/b)
<pd|dd>:          600 b            0 skpd (  0.0%)    0.008 s ( 0.014 ms/b)
<pd|df>:          400 b            0 skpd (  0.0%)    0.008 s ( 0.020 ms/b)
<pd|ff>:          120 b            0 skpd (  0.0%)    0.004 s ( 0.030 ms/b)
<pf|pf>:          136 b            0 skpd (  0.0%)    0.004 s ( 0.030 ms/b)
<pf|dd>:          240 b            0 skpd (  0.0%)    0.005 s ( 0.021 ms/b)
<pf|df>:          160 b            0 skpd (  0.0%)    0.005 s ( 0.034 ms/b)
<pf|ff>:           48 b            0 skpd (  0.0%)    0.003 s ( 0.063 ms/b)
<dd|dd>:          120 b            0 skpd (  0.0%)    0.003 s ( 0.025 ms/b)
<dd|df>:          150 b            0 skpd (  0.0%)    0.006 s ( 0.037 ms/b)
<dd|ff>:           45 b            0 skpd (  0.0%)    0.002 s ( 0.050 ms/b)
<df|df>:           55 b            0 skpd (  0.0%)    0.003 s ( 0.056 ms/b)
<df|ff>:           30 b            0 skpd (  0.0%)    0.003 s ( 0.092 ms/b)
<ff|ff>:            6 b            0 skpd (  0.0%)    0.001 s ( 0.173 ms/b)
Time needed for Fock operator              ...            0.273 sec
Reference energy                           ...    -92.831550960

--------------
DLPNO SETTINGS (2015 fully linear scaling implementation)
--------------

TCutMKN:           1.000e-03
TCutPAO:           1.000e-03
TCutPNO:           3.330e-07
TCutPNOSingles:    9.990e-09
TCutEN:            9.700e-01
TCutPAOExt:        1.000e-01
TCutPairs:         1.000e-04
TCutPre:           1.000e-06
TCutOSV:           1.000e-06
TCutDOij:          1.000e-05
TCutDO:            1.000e-02
TCutC:             1.000e-04
TCutCPAO:          1.000e-03
TCutCMO:           1.000e-03
TScaleDOMP2PreScr: 2.000e+00
TScaleMKNMP2PreScr:1.000e+01
TScalePNOMP2PreScr:1.000e+00
PAO overlap thresh 1.000e-08
Using PNOs for Singles Fock computation
Use new domains
Use fully linear algorithm
TCutTNO:           1.000e-09
TCutMP2Pairs:      1.000e-05
TCutDOStrong:      2.000e-03
TCutMKNStrong:     1.000e-02
TCutMKNWeak:       1.000e-01
TCutDOWeak:        4.000e-03
NTCutTNO:          1

--------------------------
Calculating differential overlap integrals ... ok
--------------------------
ELECTRON PAIR PRESCREENING
--------------------------

Dipole-based pair screening          .... used

   TCutDOij = 1.000000e-05
   TCutPre  = 1.000000e-06
   .... Finished loop over pairs
Total time spent in the prescreening                  ...     0.000 sec
sum of pair energies estimated for screened out pairs ...       0.000000000000 Eh
Thresholds for map construction and integral transformation for crude MP2:
   TCutMKN                    ...     1.0e-02
   TCutDO                     ...     2.0e-02
   TCutPairs                  ...     1.0e-04
   TCutPNO_CrudeMP2           ...     3.3e-07
   TCutPNOSingles_CrudeMP2    ...     1.0e-08
--------------------------------
LOCAL RI TRANSFORMATION (IAVPAO)
--------------------------------

Orbital window:       2 to 6
Number of PAOs:      76
Basis functions:     76 (28 shells)
Aux. functions:     182 (54 shells)

Processing maps (0.0 sec)
Average map sizes:
   Aux shells -> MOs               5.0
   Aux shells -> PAOs             76.0
   MOs        -> AO shells        28.0
   PAOs       -> AO shells        28.0

Calculating integrals (0.2 sec, 0.530 MB)
Sorting integrals (0.0 sec, 0.528 MB)
Total time for the integral transformation: 0.2 sec
--------------------------------
INITIAL GUESS AND PNO GENERATION
--------------------------------

PNO truncation parameters                   .... 
    PAOOverlapThresh   =        1.000e-08

    TCutPairs          =        1.000e-04
    TCutPNO            =        3.330e-07
    TCutPNOSingles     =        9.990e-09
    TCutMP2Pairs       =        1.000e-05
    TCutMKN            =        1.000e-02
    TCutDO             =        2.000e-02

Pair selection                          .... not used
Type of local MP2 treatment                 .... semi-local MP2
Strategy for PNO selection                  .... occupation number selection
Pair density normalization                  .... MP2 norm
Spin component scaling                      .... not used

   .... Finished loop over pairs
Making pair pair interaction lists          ... done

                       ===========================
                         15 OF   15 PAIRS ARE KEPT CCSD PAIRS
                          0 OF   15 PAIRS ARE KEPT MP2 PAIRS FOR (T)
                          0 OF   15 PAIRS ARE SKIPPED
                       ===========================

Total time spent in the initial guess                 ...     0.051 sec
SL-MP2 correlation energy (all non-screened pairs)    ...      -0.319901345320 Eh

Initial PNO correlation energy                        ...      -0.319681122220 Eh
sum of pair energies prescreened and skipped MP2 pairs...       0.000000000000 Eh
sum of pair energies of crude MP2 skipped pairs only  ...       0.000000000000 Eh
sum of MP2 pair energies for pairs that were not kept ...       0.000000000000 Eh
sum of PNO error estimates for the kept pairs         ...      -0.000220223100 Eh
                                                          --------------------
sum of all corrections                                         -0.000220223100
Initial total correlation energy                               -0.319901345320
Thresholds for map construction and integral transformation for fine MP2 and CCSD(T) calculation:
   TCutMKN   ...     1.0e-03
   TCutDO    ...     1.0e-02
   TCutPairs ...     1.0e-04
   TCutCMO   ...     1.0e-03
   TCutCPAO  ...     1.0e-03

Thresholds for map construction and integral transformation for strong Triples:
   TCutMKN   ...     1.0e-02
   TCutDO    ...     2.0e-02
   TCutCMO   ...     1.0e-03
   TCutCPAO  ...     1.0e-03

Thresholds for map construction and integral transformation for weak Triples:
   TCutMKN   ...     1.0e-01
   TCutDO    ...     4.0e-02
   TCutCMO   ...     1.0e-03
   TCutCPAO  ...     1.0e-03

--------------------------------
LOCAL RI TRANSFORMATION (IAVPAO)
--------------------------------

Orbital window:       2 to 6
Number of PAOs:      76
Basis functions:     76 (28 shells)
Aux. functions:     182 (54 shells)

Processing maps (0.0 sec)
Average map sizes:
   Aux shells -> MOs               5.0
   Aux shells -> PAOs             76.0
   MOs        -> AO shells        28.0
   PAOs       -> AO shells        28.0

Calculating integrals (0.2 sec, 0.530 MB)
Sorting integrals (0.0 sec, 0.528 MB)
Total time for the integral transformation: 0.2 sec
--------------------------------
INITIAL GUESS AND PNO GENERATION
--------------------------------

PNO truncation parameters                   .... 
    PAOOverlapThresh   =        1.000e-08

    TCutPairs          =        1.000e-04
    TCutPNO            =        3.330e-07
    TCutPNOSingles     =        9.990e-09
    TCutMP2Pairs       =        1.000e-05
    TCutMKN            =        1.000e-03
    TCutDO             =        1.000e-02

Pair selection                          .... not used
Type of local MP2 treatment                 .... semi-local MP2
Strategy for PNO selection                  .... occupation number selection
Pair density normalization                  .... MP2 norm
Spin component scaling                      .... not used

   .... Finished loop over pairs

 PNO Occupation Number Statistics: 
  | Av. % of trace(Dij) retained        ...  99.978417025424
  | sigma^2 in % of trace(Dij) retained ...   6.19e-04
  | Av. % of trace(Di) retained         ...  99.999850184016
  | sigma^2 in % of trace(Di) retained  ...   1.42e-08
 Distributions of % trace(Dij) recovered:
  |       >= 99.9  ...    14 ( 93.3 % of all pairs)
  |   [99.0, 99.9) ...     1 (  6.7 % of all pairs)
 Distributions of % trace(Di) recovered :
  |       >= 99.9  ...     5 (100.0 % of all I-pairs )

Making pair pair interaction lists          ... done

                       ===========================
                         15 OF   15 PAIRS ARE KEPT
                       ===========================

Total time spent in the initial guess                 ...     0.041 sec
SL-MP2 correlation energy (all non-screened pairs)    ...      -0.319998539874 Eh

Initial PNO correlation energy                        ...      -0.319778653883 Eh
sum of pair energies estimated for screened out pairs ...       0.000000000000 Eh
sum of MP2 pair energies for pairs that were not kept ...       0.000000000000 Eh
sum of PNO error estimates for the kept pairs         ...      -0.000219885992 Eh
                                                          --------------------
sum of all corrections                                         -0.000219885992
Initial total correlation energy                               -0.319998539874
Thresholds for map construction and integral transformation for fine MP2 and CCSD(T) calculation:
   TCutMKN   ...     1.0e-03
   TCutDO    ...     1.0e-02
   TCutPairs ...     1.0e-04
   TCutCMO   ...     1.0e-03
   TCutCPAO  ...     1.0e-03

Time for aux screen maps:            0.000
Time for maps after fine MP2:            0.000
-----------------------------
LOCAL RI TRANSFORMATION (IJV)
-----------------------------

Orbital window:       2 to 6
Basis functions:     76 (28 shells)
Aux. functions:     182 (54 shells)

Processing maps (0.0 sec)
Average map sizes:
   Aux shells -> MOs(i)            5.0
   Aux shells -> MOs(j)            5.0
   MOs        -> AO shells        28.0

Calculating integrals (0.2 sec, 0.037 MB)
Sorting integrals (0.0 sec, 0.035 MB)
Total time for the integral transformation: 0.2 sec
--------------------------------
LOCAL RI TRANSFORMATION (VABPAO)
--------------------------------

Number of PAOs:      76
Basis functions:     76 (28 shells)
Aux. functions:     182 (54 shells)

Processing maps (0.0 sec)
Average map sizes:
   Aux shells -> PAOs             76.0
   PAOs       -> AO shells        28.0

Calculating integrals (0.2 sec, 8.022 MB)
Finished


-------------------------------------
Pair Pair Term precalculation with     
RI-(ij|mn) and (im|jn) transformation  
ON THE FLY                             
-------------------------------------

   IBatch   1 (of   1)              ... done (    0.950 sec)
Total EXT                           ...           0.950 sec

---------------------
RI-PNO TRANSFORMATION
---------------------

Total Number of PNOs                   ...   692
Average number of PNOs per pair        ...    46
Maximal number of PNOs per pair        ...    55
   #pairs with  1 -  5 PNOs   :    0
   #pairs with  6 - 10 PNOs   :    0
   #pairs with 11 - 15 PNOs   :    0
   #pairs with 16 - 20 PNOs   :    0
   #pairs with 21 - 25 PNOs   :    0
   #pairs with 26 - 30 PNOs   :    0
   #pairs with 31 - 35 PNOs   :    0
   #pairs with 36 - 40 PNOs   :    3
   #pairs with 41 - 45 PNOs   :    4
   #pairs with 46 - 50 PNOs   :    5
   #pairs with 51 - 55 PNOs   :    3

Generation of (ij|ab)[P] integrals            ... on
Generation of (ia|bc)[P],(ja|bc)[P] integrals ... on
Storage of 3 and 4 external integrals         ... on
Generation of ALL (ka|bc)[P] integrals        ... on
Keep RI integrals in memory                   ... off

Ibatch:  1 (of  1)
Starting 2-4 index PNO integral generation ... done

Timings:
Total PNO integral transformation time     ...          0.438 sec
Size of the 3-external file                ...        11 MB
Size of the 4-external file                ...        73 MB
Size of the IKJL file                      ...         0 MB
Size of the all 3-external file            ...        29 MB
Size of the 1-external file                ...         0 MB

Making pair/pair overlap matrices          ... done (    0.011 sec)
Size of the pair overlap file              ... 3 MB
Redoing the guess amplitudes               ... done (    0.000 sec)

-------------------------
FINAL STARTUP INFORMATION
-------------------------

E(0)                                       ...    -92.831550960
E(SL-MP2)                                  ...     -0.319998540
E(SL-MP2) including corrections            ...     -0.319998540
Initial E(tot)                             ...    -93.151549500
<T|T>                                      ...      0.102339870
Number of pairs included                   ... 15
Total number of pairs                      ... 15

------------------------------------------------
                  RHF COUPLED CLUSTER ITERATIONS
------------------------------------------------

Number of PNO amplitudes to be optimized   ...        32358
Number of non-PNO amplitudes               ...        71415
Untruncated number of regular amplitudes   ...        71415

Iter       E(tot)           E(Corr)          Delta-E          Residual     Time
  0    -93.151557131     -0.319786285      0.000212254      0.021940417    3.14
                           *** Turning on DIIS ***
  1    -93.162288474     -0.330517629     -0.010731343      0.010051788    2.84
  2    -93.173109009     -0.341338163     -0.010820535      0.004967014    2.84
  3    -93.176397572     -0.344626726     -0.003288562      0.002516036    2.83
  4    -93.177477235     -0.345706389     -0.001079663      0.001543861    2.89
  5    -93.177863775     -0.346092929     -0.000386540      0.000824684    2.94
  6    -93.178006703     -0.346235857     -0.000142928      0.000360775    2.87
  7    -93.178045550     -0.346274705     -0.000038848      0.000148713    2.88
  8    -93.178056922     -0.346286077     -0.000011372      0.000083621    2.90
  9    -93.178060831     -0.346289985     -0.000003909      0.000036576    2.90
 10    -93.178062523     -0.346291677     -0.000001692      0.000015773    2.94
 11    -93.178062734     -0.346291888     -0.000000211      0.000005180    2.87
               --- The Coupled-Cluster iterations have converged ---

----------------------
COUPLED CLUSTER ENERGY
----------------------

E(0)                                       ...    -92.831550960
E(CORR)(strong-pairs)                      ...     -0.346291888
E(CORR)(weak-pairs)                        ...     -0.000219886
E(CORR)(corrected)                         ...     -0.346511774
E(TOT)                                     ...    -93.178062734
Singles Norm <S|S>**1/2                    ...      0.068446568  
T1 diagnostic                              ...      0.021644705  

------------------
LARGEST AMPLITUDES
------------------
   6->  7   6->  7       0.062721
   5->  7   5->  7       0.048712
   4->  7   4->  7       0.048712
   2->  8   2->  8       0.045816
   3->  7   3->  7       0.044437
   2->  7   2->  7       0.041416
   6->  8   6->  8       0.039538
   5->  7   4->  7       0.038545
   2->  7  -1-> -1       0.036979
   2->  9   2->  9       0.036478
   3->  8   3->  8       0.028050
   2-> 10   2-> 10       0.027684
   2-> 14   2-> 14       0.027028
   2-> 12   2->  8       0.026721
   2->  8   2-> 12       0.026721
   6->  7   4->  7       0.024547


-------------------------------------------
DLPNO BASED TRIPLES CORRECTION
-------------------------------------------

Singles multiplier          ...  1.000000
TCutTNO                     ... 1.000e-09
TCutMP2Pairs                ... 1.000e-05
TCutDOStrong                ... 2.000e-02
TCutMKNStrong               ... 1.000e-02
TCutDOWeak                  ... 4.000e-02
TCutMKNWeak                 ... 1.000e-01

Fragment selection                          .... not used
Number of Triples that are to be computed   ...        30

 . . . . . . . . .
10% done  
20% done  
30% done  
40% done  
50% done  
60% done  
70% done  
80% done  
90% done               (      2.488 sec)
Triples timings:
Total time for T0               ...     2.572 sec
Total time for Iterative (T)    ...     0.000 sec
Total time of overall (T)       ...     2.572 sec

Triples List generation         ...     0.000 sec
TNO generation                  ...     0.082 sec
Pair density generation         ...     0.001 sec
Look up tables                  ...     0.000 sec
Generating 3-index integrals    ...     0.319 sec
  Make 4-ind.int. from 3-ind.int...     0.283 sec
  Projecting amplitudes (D + S) ...     0.030 sec
  Downprojecting integrals      ...     0.000 sec
  Energy contr. (sum over a,b,c)...     1.520 sec
Fitting ET(->0)                 ...     0.000 sec

Everything after 3-index        ...     2.169 sec

Timing details:
 TNO integrals                  ...     0.566 sec
   Reading 3-index integrals    ...     0.002 sec
   Sorting integrals            ...     0.131 sec
       Sorting integrals 1      ...     0.000 sec
       Sorting integrals 2      ...     0.020 sec
       Sorting integrals 3      ...     0.012 sec
       Sorting integrals 4      ...     0.000 sec
       Sorting integrals 5      ...     0.001 sec
       Sorting integrals 6      ...     0.096 sec
   Calculating local VM**-1/2   ...     0.005 sec
   Orthogonal. integrals        ...     0.012 sec
   Multipl. 3-index integrals   ...     0.416 sec
   All concerning IRIab (w/TNO) ...     0.150 sec

 Calculate W0/W1                ...     0.334 sec
 W 3-ext contribution           ...     0.205 sec
 W 3-int contribution           ...     0.034 sec
 Sorting W                      ...     0.089 sec

 V exchange contribution        ...     0.738 sec

 Timings for Triples without generation
     of 3-index integrals       ...     2.168 sec
       0 weak pairs             ...     2.168 sec
       1 weak pair              ...     0.000 sec
       2 weak pairs             ...     0.000 sec
       3 weak pairs             ...     0.000 sec
  Extra time for extrapolation  ...     0.000 sec

Number of Triples   (0, 1, 2, 3 weak pairs; overall):     30       0       0       0  (    30)
Number of Atoms     (0, 1, 2, 3 weak pairs; overall):    3.0     0.0     0.0     0.0  (     3)
Number of PAOs      (0, 1, 2, 3 weak pairs; overall):   76.0     0.0     0.0     0.0  (    76)
Number of AuxFcns   (0, 1, 2, 3 weak pairs; overall):  175.0     0.0     0.0     0.0  (   182)
Number of TNOs      (0, 1, 2, 3 weak pairs         ):   67.7     0.0     0.0     0.0
Aver. Number of NTNO, Atoms, PAOs, AuxFcns / Triples:     30    67.7     3.0    76.0   175.0

Triples Correction (T)                     ...     -0.017715207
Final correlation energy                   ...     -0.364226982
E(CCSD)                                    ...    -93.178062734
E(CCSD(T))                                 ...    -93.195777942


Maximum memory used throughout the entire calculation: 508.1 MB


------------------------------------------------------------------------------- 
                                     TIMINGS                                   
------------------------------------------------------------------------------- 


Total execution time                   ...       40.789 sec

Localization of occupied MO's          ...        0.392 sec (  1.0%)
Fock Matrix Formation                  ...        0.273 sec (  0.7%)
Global overlap, Fock, MKN matrices     ...        0.074 sec (  0.2%)
Differential overlap integrals         ...        0.047 sec (  0.1%)
Organizing maps                        ...        0.002 sec (  0.0%)
RI 3-index integral generations        ...        0.641 sec (  1.6%)
RI-PNO integral transformation         ...        1.404 sec (  3.4%)
Initial Guess                          ...        0.157 sec (  0.4%)
DIIS Solver                            ...        0.030 sec (  0.1%)
State Vector Update                    ...        0.001 sec (  0.0%)
Sigma-vector construction              ...       34.799 sec ( 85.3%)
  <D|H|D>(0-ext)                       ...        0.230 sec (  0.7% of sigma)
  <D|H|D>(2-ext Fock)                  ...        0.009 sec (  0.0% of sigma)
  <D|H|D>(2-ext)                       ...        0.571 sec (  1.6% of sigma)
  <D|H|D>(4-ext)                       ...        5.318 sec ( 15.3% of sigma)
  <D|H|D>(4-ext-corr)                  ...       27.209 sec ( 78.2% of sigma)
  CCSD doubles correction              ...        0.031 sec (  0.1% of sigma)
  <S|H|S>                              ...        0.095 sec (  0.3% of sigma)
  <S|H|D>(1-ext)                       ...        0.043 sec (  0.1% of sigma)
  <D|H|S>(1-ext)                       ...        0.003 sec (  0.0% of sigma)
  <S|H|D>(3-ext)                       ...        0.233 sec (  0.7% of sigma)
  Fock-dressing                        ...        0.655 sec (  1.9% of sigma)
  Singles amplitudes                   ...        0.007 sec (  0.0% of sigma)
  (ik|jl)-dressing                     ...        0.082 sec (  0.2% of sigma)
  (ij|ab),(ia|jb)-dressing             ...        0.298 sec (  0.9% of sigma)
  Pair energies                        ...        0.002 sec (  0.0% of sigma)
Total Time for computing (T)           ...        2.747 sec (  6.7% of ALL)


-------------------------   --------------------
FINAL SINGLE POINT ENERGY       -93.195777941502
-------------------------   --------------------


                            ***************************************
                            *     ORCA property calculations      *
                            ***************************************

                                    ---------------------
                                    Active property flags
                                    ---------------------
   (+) Dipole Moment


------------------------------------------------------------------------------
                       ORCA ELECTRIC PROPERTIES CALCULATION
------------------------------------------------------------------------------

Dipole Moment Calculation                       ... on
Quadrupole Moment Calculation                   ... off
Polarizability Calculation                      ... off
GBWName                                         ... 09_hcn_iso_ts_dlpnoccsdt.gbw
Electron density file                           ... 09_hcn_iso_ts_dlpnoccsdt.scfp.tmp
The origin for moment calculation is the CENTER OF MASS  = ( 0.654213,  0.946719 -0.778286)

-------------
DIPOLE MOMENT
-------------
                                X             Y             Z
Electronic contribution:      0.46769       0.00000       0.25774
Nuclear contribution   :     -0.95791      -0.00000      -0.59311
                        -----------------------------------------
Total Dipole Moment    :     -0.49022      -0.00000      -0.33537
                        -----------------------------------------
Magnitude (a.u.)       :      0.59396
Magnitude (Debye)      :      1.50973



--------------------
Rotational spectrum 
--------------------
 
Rotational constants in cm-1:    11.171685     1.775221     1.531811 
Rotational constants in MHz : 334918.697411 53219.787250 45922.531588 

 Dipole components along the rotational axes: 
x,y,z [a.u.] :    -0.004964     0.593939     0.000000 
x,y,z [Debye]:    -0.012617     1.509674     0.000000 

 

Timings for individual modules:

Sum of individual times         ...       47.789 sec (=   0.796 min)
GTO integral calculation        ...        2.941 sec (=   0.049 min)   6.2 %
SCF iterations                  ...        1.006 sec (=   0.017 min)   2.1 %
MDCI module                     ...       43.841 sec (=   0.731 min)  91.7 %
                             ****ORCA TERMINATED NORMALLY****
TOTAL RUN TIME: 0 days 0 hours 0 minutes 47 seconds 889 msec
