
                                 *****************
                                 * O   R   C   A *
                                 *****************

           --- An Ab Initio, DFT and Semiempirical electronic structure package ---

                  #######################################################
                  #                        -***-                        #
                  #          Department of theory and spectroscopy      #
                  #               Directorship: Frank Neese             #
                  #        Max Planck Institute fuer Kohlenforschung    #
                  #                Kaiser Wilhelm Platz 1               #
                  #                 D-45470 Muelheim/Ruhr               #
                  #                      Germany                        #
                  #                                                     #
                  #                  All rights reserved                #
                  #                        -***-                        #
                  #######################################################


                         Program Version 4.1.0  - RELEASE  -


 With contributions from (in alphabetic order):
   Daniel Aravena         : Magnetic Properties
   Michael Atanasov       : Ab Initio Ligand Field Theory
   Alexander A. Auer      : GIAO ZORA
   Ute Becker             : Parallelization
   Giovanni Bistoni       : ED, Open-shell LED
   Martin Brehm           : Molecular dynamics
   Dmytro Bykov           : SCF Hessian
   Vijay G. Chilkuri      : MRCI spin determinant printing
   Dipayan Datta          : RHF DLPNO-CCSD density
   Achintya Kumar Dutta   : EOM-CC, STEOM-CC
   Dmitry Ganyushin       : Spin-Orbit,Spin-Spin,Magnetic field MRCI
   Miquel Garcia          : C-PCM Hessian
   Yang Guo               : DLPNO-NEVPT2, CIM, IAO-localization
   Andreas Hansen         : Spin unrestricted coupled pair/coupled cluster methods
   Benjamin Helmich-Paris : CASSCF linear response (MC-RPA)
   Lee Huntington         : MR-EOM, pCC
   Robert Izsak           : Overlap fitted RIJCOSX, COSX-SCS-MP3, EOM
   Christian Kollmar      : KDIIS, OOCD, Brueckner-CCSD(T), CCSD density
   Simone Kossmann        : Meta GGA functionals, TD-DFT gradient, OOMP2, MP2 Hessian
   Martin Krupicka        : AUTO-CI
   Lucas Lang             : DCDCAS
   Dagmar Lenk            : GEPOL surface, SMD
   Dimitrios Liakos       : Extrapolation schemes; parallel MDCI
   Dimitrios Manganas     : ROCIS; embedding schemes
   Dimitrios Pantazis     : SARC Basis sets
   Taras Petrenko         : DFT Hessian,TD-DFT gradient, ASA, ECA, R-Raman, ABS, FL, XAS/XES, NRVS
   Peter Pinski           : DLPNO-MP2, DLPNO-MP2 Gradient
   Christoph Reimann      : Effective Core Potentials
   Marius Retegan         : Local ZFS, SOC
   Christoph Riplinger    : Optimizer, TS searches, QM/MM, DLPNO-CCSD(T), (RO)-DLPNO pert. Triples
   Tobias Risthaus        : Range-separated hybrids, TD-DFT gradient, RPA, STAB
   Michael Roemelt        : Restricted open shell CIS
   Masaaki Saitow         : Open-shell DLPNO
   Barbara Sandhoefer     : DKH picture change effects
   Avijit Sen             : IP-ROCIS
   Kantharuban Sivalingam : CASSCF convergence, NEVPT2, FIC-MRCI
   Bernardo de Souza      : ESD, SOC TD-DFT
   Georgi Stoychev        : AutoAux, RI-MP2 NMR
   Willem Van den Heuvel  : Paramagnetic NMR
   Boris Wezisla          : Elementary symmetry handling
   Frank Wennmohs         : Technical directorship


 We gratefully acknowledge several colleagues who have allowed us to
 interface, adapt or use parts of their codes:
   Stefan Grimme, W. Hujo, H. Kruse,             : VdW corrections, initial TS optimization,
                  C. Bannwarth                     DFT functionals, gCP, sTDA/sTD-DF
   Ed Valeev                                     : LibInt (2-el integral package), F12 methods
   Garnet Chan, S. Sharma, J. Yang, R. Olivares  : DMRG
   Ulf Ekstrom                                   : XCFun DFT Library
   Mihaly Kallay                                 : mrcc  (arbitrary order and MRCC methods)
   Andreas Klamt, Michael Diedenhofen            : otool_cosmo (COSMO solvation model)
   Jiri Pittner, Ondrej Demel                    : Mk-CCSD
   Frank Weinhold                                : gennbo (NPA and NBO analysis)
   Christopher J. Cramer and Donald G. Truhlar   : smd solvation model
   Lars Goerigk                                  : TD-DFT with DH, B97 family of functionals
   V. Asgeirsson, H. Jonsson                     : NEB implementation
   FAccTs GmbH                                   : IRC, NEB, NEB-TS, Multilevel


 Your calculation uses the libint2 library for the computation of 2-el integrals
 For citations please refer to: http://libint.valeyev.net

 This ORCA versions uses:
   CBLAS   interface :  Fast vector & matrix operations
   LAPACKE interface :  Fast linear algebra routines
   SCALAPACK package :  Parallel linear algebra routines




***************************************
The coordinates will be read from file: 04_hcn_iso_irc_IRC_F.xyz
***************************************


----- Orbital basis set information -----
Your calculation utilizes the basis: def2-TZVPP
   F. Weigend and R. Ahlrichs, Phys. Chem. Chem. Phys. 7, 3297 (2005).

----- AuxC basis set information -----
Your calculation utilizes the auxiliary basis: def2-TZVPP/C
  H-La, Hf-Rn : A. Hellweg, C. Hattig, S. Hofener and W. Klopper, Theor. Chem. Acc. 117, 587 (2007).
        Ce-Lu : J. Chmela and M. E. Harding, Mol. Phys. (2018).

================================================================================
                                        WARNINGS
                       Please study these warnings very carefully!
================================================================================


WARNING: MDCI localization with Augmented Hessian Foster-Boys
  ===> : Switching off randomization!

WARNING: Post HF methods need fully converged wavefunctions
  ===> : Setting SCFConvForced true
         You can overwrite this default with %scf ConvForced false 


INFO   : the flag for use of LIBINT has been found!

================================================================================
                                       INPUT FILE
================================================================================
NAME = 10_hcn_iso_educt_dlpnoccsdt.inp
|  1> ! DLPNO-CCSD(T) def2-TZVPP def2-TZVPP/C TightSCF
|  2> %maxcore 10000
|  3> 
|  4> *xyzfile 0 1 04_hcn_iso_irc_IRC_F.xyz
|  5> 
|  6>                          ****END OF INPUT****
================================================================================

                       ****************************
                       * Single Point Calculation *
                       ****************************

---------------------------------
CARTESIAN COORDINATES (ANGSTROEM)
---------------------------------
  C     -0.025635    0.500982   -0.568516
  H     -1.095371    0.500982   -0.602096
  N      1.129537    0.500982   -0.534632

----------------------------
CARTESIAN COORDINATES (A.U.)
----------------------------
  NO LB      ZA    FRAG     MASS         X           Y           Z
   0 C     6.0000    0    12.011   -0.048443    0.946719   -1.074339
   1 H     1.0000    0     1.008   -2.069950    0.946719   -1.137796
   2 N     7.0000    0    14.007    2.134515    0.946719   -1.010308

--------------------------------
INTERNAL COORDINATES (ANGSTROEM)
--------------------------------
 C      0   0   0     0.000000000000     0.00000000     0.00000000
 H      1   0   0     1.070262687396     0.00000000     0.00000000
 N      1   2   0     1.155668418512   179.88217460     0.00000000

---------------------------
INTERNAL COORDINATES (A.U.)
---------------------------
 C      0   0   0     0.000000000000     0.00000000     0.00000000
 H      1   0   0     2.022503370534     0.00000000     0.00000000
 N      1   2   0     2.183896812610   179.88217460     0.00000000

---------------------
BASIS SET INFORMATION
---------------------
There are 3 groups of distinct atoms

 Group   1 Type C   : 11s6p2d1f contracted to 5s3p2d1f pattern {62111/411/11/1}
 Group   2 Type H   : 5s2p1d contracted to 3s2p1d pattern {311/11/1}
 Group   3 Type N   : 11s6p2d1f contracted to 5s3p2d1f pattern {62111/411/11/1}

Atom   0C    basis set group =>   1
Atom   1H    basis set group =>   2
Atom   2N    basis set group =>   3
-------------------------------
AUXILIARY BASIS SET INFORMATION
-------------------------------
There are 3 groups of distinct atoms

 Group   1 Type C   : 8s6p5d3f1g contracted to 8s6p4d3f1g pattern {11111111/111111/2111/111/1}
 Group   2 Type H   : 4s3p2d1f contracted to 4s3p2d1f pattern {1111/111/11/1}
 Group   3 Type N   : 8s6p5d3f1g contracted to 8s6p4d3f1g pattern {11111111/111111/2111/111/1}

Atom   0C    basis set group =>   1
Atom   1H    basis set group =>   2
Atom   2N    basis set group =>   3
------------------------------------------------------------------------------
                           ORCA GTO INTEGRAL CALCULATION
------------------------------------------------------------------------------

                         BASIS SET STATISTICS AND STARTUP INFO

 # of primitive gaussian shells          ...   48
 # of primitive gaussian functions       ...  108
 # of contracted shells                  ...   28
 # of contracted basis functions         ...   76
 Highest angular momentum                ...    3
 Maximum contraction depth               ...    6
 Integral package used                   ... LIBINT
 Integral threshhold            Thresh   ...  2.500e-11
 Primitive cut-off              TCut     ...  2.500e-12


------------------------------ INTEGRAL EVALUATION ----------------------------


 * One electron integrals 
 Pre-screening matrix                    ... done
 Shell pair data                         ... done (   0.000 sec)

-------------------------------------------------------------------------------
                                 ORCA SCF
-------------------------------------------------------------------------------

------------
SCF SETTINGS
------------
Hamiltonian:
 Ab initio Hamiltonian  Method          .... Hartree-Fock(GTOs)


General Settings:
 Integral files         IntName         .... 10_hcn_iso_educt_dlpnoccsdt
 Hartree-Fock type      HFTyp           .... RHF
 Total Charge           Charge          ....    0
 Multiplicity           Mult            ....    1
 Number of Electrons    NEL             ....   14
 Basis Dimension        Dim             ....   76
 Nuclear Repulsion      ENuc            ....     23.8624300431 Eh

Convergence Acceleration:
 DIIS                   CNVDIIS         .... on
   Start iteration      DIISMaxIt       ....    12
   Startup error        DIISStart       ....  0.200000
   # of expansion vecs  DIISMaxEq       ....     5
   Bias factor          DIISBfac        ....   1.050
   Max. coefficient     DIISMaxC        ....  10.000
 Newton-Raphson         CNVNR           .... off
 SOSCF                  CNVSOSCF        .... on
   Start iteration      SOSCFMaxIt      ....   150
   Startup grad/error   SOSCFStart      ....  0.003300
 Level Shifting         CNVShift        .... on
   Level shift para.    LevelShift      ....    0.2500
   Turn off err/grad.   ShiftErr        ....    0.0010
 Zerner damping         CNVZerner       .... off
 Static damping         CNVDamp         .... on
   Fraction old density DampFac         ....    0.7000
   Max. Damping (<1)    DampMax         ....    0.9800
   Min. Damping (>=0)   DampMin         ....    0.0000
   Turn off err/grad.   DampErr         ....    0.1000
 Fernandez-Rico         CNVRico         .... off

SCF Procedure:
 Maximum # iterations   MaxIter         ....   125
 SCF integral mode      SCFMode         .... Direct
   Integral package                     .... LIBINT
 Reset frequency        DirectResetFreq ....    20
 Integral Threshold     Thresh          ....  2.500e-11 Eh
 Primitive CutOff       TCut            ....  2.500e-12 Eh

Convergence Tolerance:
 Convergence Check Mode ConvCheckMode   .... Total+1el-Energy
 Convergence forced     ConvForced      .... 1
 Energy Change          TolE            ....  1.000e-08 Eh
 1-El. energy change                    ....  1.000e-05 Eh
 Orbital Gradient       TolG            ....  1.000e-05
 Orbital Rotation angle TolX            ....  1.000e-05
 DIIS Error             TolErr          ....  5.000e-07


Diagonalization of the overlap matrix:
Smallest eigenvalue                        ... 1.151e-04
Time for diagonalization                   ...    0.001 sec
Threshold for overlap eigenvalues          ... 1.000e-08
Number of eigenvalues below threshold      ... 0
Time for construction of square roots      ...    0.033 sec
Total time needed                          ...    0.034 sec

-------------------
DFT GRID GENERATION
-------------------

General Integration Accuracy     IntAcc      ...  4.340
Radial Grid Type                 RadialGrid  ... Gauss-Chebyshev
Angular Grid (max. acc.)         AngularGrid ... Lebedev-110
Angular grid pruning method      GridPruning ... 3 (G Style)
Weight generation scheme         WeightScheme... Becke
Basis function cutoff            BFCut       ...    1.0000e-11
Integration weight cutoff        WCut        ...    1.0000e-14
Grids for H and He will be reduced by one unit

# of grid points (after initial pruning)     ...   4152 (   0.0 sec)
# of grid points (after weights+screening)   ...   4100 (   0.0 sec)
nearest neighbour list constructed           ...    0.0 sec
Grid point re-assignment to atoms done       ...    0.0 sec
Grid point division into batches done        ...    0.0 sec
Reduced shell lists constructed in    0.1 sec

Total number of grid points                  ...     4100
Total number of batches                      ...       65
Average number of points per batch           ...       63
Average number of grid points per atom       ...     1367
Average number of shells per batch           ...    23.89 (85.34%)
Average number of basis functions per batch  ...    67.11 (88.30%)
Average number of large shells per batch     ...    21.86 (91.50%)
Average number of large basis fcns per batch ...    61.86 (92.19%)
Maximum spatial batch extension              ...  18.12, 25.60, 31.36 au
Average spatial batch extension              ...   4.25,  6.78,  6.40 au

Time for grid setup =    0.093 sec

------------------------------
INITIAL GUESS: MODEL POTENTIAL
------------------------------
Loading Hartree-Fock densities                     ... done
Calculating cut-offs                               ... done
Setting up the integral package                    ... done
Initializing the effective Hamiltonian             ... done
Starting the Coulomb interaction                   ... done (   0.0 sec)
Reading the grid                                   ... done
Mapping shells                                     ... done
Starting the XC term evaluation                    ... done (   0.0 sec)
Transforming the Hamiltonian                       ... done (   0.0 sec)
Diagonalizing the Hamiltonian                      ... done (   0.0 sec)
Back transforming the eigenvectors                 ... done (   0.0 sec)
Now organizing SCF variables                       ... done
                      ------------------
                      INITIAL GUESS DONE (   0.2 sec)
                      ------------------
--------------
SCF ITERATIONS
--------------
ITER       Energy         Delta-E        Max-DP      RMS-DP      [F,P]     Damp
               ***  Starting incremental Fock matrix formation  ***
  0    -92.8025071893   0.000000000000 0.03624181  0.00182191  0.3085463 0.7000
  1    -92.8435782048  -0.041071015472 0.02582001  0.00137256  0.1885101 0.7000
                               ***Turning on DIIS***
  2    -92.8659904166  -0.022412211840 0.01851111  0.00091084  0.1421763 0.7000
  3    -93.0548537685  -0.188863351840 0.01258367  0.00060218  0.1053363 0.7000
  4    -93.0467227705   0.008130998004 0.02776511  0.00138099  0.0743537 0.0000
  5    -92.9211122715   0.125610498949 0.00287565  0.00015509  0.0073202 0.0000
                      *** Initiating the SOSCF procedure ***
                           *** Shutting down DIIS ***
                      *** Re-Reading the Fockian *** 
                      *** Removing any level shift *** 
ITER      Energy       Delta-E        Grad      Rot      Max-DP    RMS-DP
  6    -92.91239229   0.0087199826  0.000919  0.000919  0.001703  0.000089
               *** Restarting incremental Fock matrix formation ***
  7    -92.91117012   0.0012221696  0.000373  0.000437  0.001655  0.000077
  8    -92.91117247  -0.0000023472  0.000173  0.000317  0.001083  0.000050
  9    -92.91117283  -0.0000003644  0.000095  0.000092  0.000148  0.000008
 10    -92.91117291  -0.0000000754  0.000021  0.000022  0.000078  0.000003
 11    -92.91117291  -0.0000000051  0.000003  0.000003  0.000007  0.000000
                  ***Gradient check signals convergence***
              ***Rediagonalizing the Fockian in SOSCF/NRSCF***

               *****************************************************
               *                     SUCCESS                       *
               *           SCF CONVERGED AFTER  12 CYCLES          *
               *****************************************************


----------------
TOTAL SCF ENERGY
----------------

Total Energy       :          -92.91117291 Eh           -2528.24155 eV

Components:
Nuclear Repulsion  :           23.86243004 Eh             649.32973 eV
Electronic Energy  :         -116.77360295 Eh           -3177.57128 eV
One Electron Energy:         -172.52366013 Eh           -4694.60746 eV
Two Electron Energy:           55.75005717 Eh            1517.03618 eV

Virial components:
Potential Energy   :         -185.60205135 Eh           -5050.48858 eV
Kinetic Energy     :           92.69087844 Eh            2522.24703 eV
Virial Ratio       :            2.00237666


---------------
SCF CONVERGENCE
---------------

  Last Energy change         ...   -1.6900e-10  Tolerance :   1.0000e-08
  Last MAX-Density change    ...    3.2400e-06  Tolerance :   1.0000e-07
  Last RMS-Density change    ...    1.5282e-07  Tolerance :   5.0000e-09
  Last Orbital Gradient      ...    9.0834e-07  Tolerance :   1.0000e-05
  Last Orbital Rotation      ...    1.8386e-06  Tolerance :   1.0000e-05

             **** THE GBW FILE WAS UPDATED (10_hcn_iso_educt_dlpnoccsdt.gbw) ****
             **** DENSITY FILE WAS UPDATED (10_hcn_iso_educt_dlpnoccsdt.scfp.tmp) ****
             **** ENERGY FILE WAS UPDATED (10_hcn_iso_educt_dlpnoccsdt.en.tmp) ****
----------------
ORBITAL ENERGIES
----------------

  NO   OCC          E(Eh)            E(eV) 
   0   2.0000     -15.599778      -424.4915 
   1   2.0000     -11.292203      -307.2765 
   2   2.0000      -1.235035       -33.6070 
   3   2.0000      -0.811261       -22.0755 
   4   2.0000      -0.581836       -15.8326 
   5   2.0000      -0.495827       -13.4921 
   6   2.0000      -0.495827       -13.4921 
   7   0.0000       0.149649         4.0721 
   8   0.0000       0.153172         4.1680 
   9   0.0000       0.153177         4.1682 
  10   0.0000       0.190129         5.1737 
  11   0.0000       0.347375         9.4526 
  12   0.0000       0.347375         9.4526 
  13   0.0000       0.370237        10.0747 
  14   0.0000       0.488900        13.3036 
  15   0.0000       0.526328        14.3221 
  16   0.0000       0.592441        16.1212 
  17   0.0000       0.592442        16.1212 
  18   0.0000       0.771822        21.0023 
  19   0.0000       0.809545        22.0288 
  20   0.0000       0.809545        22.0288 
  21   0.0000       0.858492        23.3608 
  22   0.0000       0.858493        23.3608 
  23   0.0000       1.006406        27.3857 
  24   0.0000       1.369756        37.2730 
  25   0.0000       1.369760        37.2731 
  26   0.0000       1.398615        38.0582 
  27   0.0000       1.418656        38.6036 
  28   0.0000       1.418656        38.6036 
  29   0.0000       1.531866        41.6842 
  30   0.0000       1.660249        45.1777 
  31   0.0000       1.660250        45.1777 
  32   0.0000       1.710959        46.5576 
  33   0.0000       1.898083        51.6495 
  34   0.0000       1.898084        51.6495 
  35   0.0000       2.098652        57.1072 
  36   0.0000       2.400516        65.3214 
  37   0.0000       2.594651        70.6040 
  38   0.0000       2.714075        73.8537 
  39   0.0000       2.714205        73.8573 
  40   0.0000       2.715525        73.8932 
  41   0.0000       2.926000        79.6205 
  42   0.0000       2.926000        79.6205 
  43   0.0000       2.927958        79.6738 
  44   0.0000       2.927958        79.6738 
  45   0.0000       3.037224        82.6471 
  46   0.0000       3.037229        82.6472 
  47   0.0000       3.230365        87.9027 
  48   0.0000       3.230365        87.9027 
  49   0.0000       3.498044        95.1866 
  50   0.0000       3.498074        95.1874 
  51   0.0000       3.521319        95.8200 
  52   0.0000       3.642292        99.1118 
  53   0.0000       3.828493       104.1786 
  54   0.0000       3.828493       104.1786 
  55   0.0000       4.293121       116.8218 
  56   0.0000       4.293126       116.8219 
  57   0.0000       4.323124       117.6382 
  58   0.0000       4.323124       117.6382 
  59   0.0000       4.580430       124.6398 
  60   0.0000       4.905012       133.4722 
  61   0.0000       4.905026       133.4725 
  62   0.0000       4.919326       133.8617 
  63   0.0000       4.919326       133.8617 
  64   0.0000       5.040900       137.1699 
  65   0.0000       5.040900       137.1699 
  66   0.0000       5.217778       141.9829 
  67   0.0000       5.325234       144.9070 
  68   0.0000       5.691663       154.8780 
  69   0.0000       5.691666       154.8781 
  70   0.0000       6.108970       166.2335 
  71   0.0000       6.108974       166.2336 
  72   0.0000       6.281947       170.9405 
  73   0.0000       6.880664       187.2324 
  74   0.0000      24.196178       658.4115 
  75   0.0000      33.333898       907.0615 

                    ********************************
                    * MULLIKEN POPULATION ANALYSIS *
                    ********************************

-----------------------
MULLIKEN ATOMIC CHARGES
-----------------------
   0 C :   -0.078902
   1 H :    0.234361
   2 N :   -0.155459
Sum of atomic charges:   -0.0000000

--------------------------------
MULLIKEN REDUCED ORBITAL CHARGES
--------------------------------
  0 C s       :     3.228689  s :     3.228689
      pz      :     0.902268  p :     2.760073
      px      :     0.955603
      py      :     0.902203
      dz2     :     0.005886  d :     0.075780
      dxz     :     0.026161
      dyz     :     0.000022
      dx2y2   :     0.017541
      dxy     :     0.026169
      f0      :     0.002075  f :     0.014360
      f+1     :     0.001233
      f-1     :     0.000345
      f+2     :     0.003470
      f-2     :     0.000012
      f+3     :     0.002013
      f-3     :     0.005212
  1 H s       :     0.735138  s :     0.735138
      pz      :     0.005826  p :     0.029948
      px      :     0.018309
      py      :     0.005812
      dz2     :     0.000205  d :     0.000553
      dxz     :    -0.000133
      dyz     :    -0.000000
      dx2y2   :     0.000617
      dxy     :    -0.000136
  2 N s       :     3.741115  s :     3.741115
      pz      :     1.036946  p :     3.354939
      px      :     1.281268
      py      :     1.036724
      dz2     :     0.002924  d :     0.056363
      dxz     :     0.022372
      dyz     :     0.000019
      dx2y2   :     0.008647
      dxy     :     0.022400
      f0      :     0.000453  f :     0.003042
      f+1     :     0.000234
      f-1     :     0.000075
      f+2     :     0.000758
      f-2     :     0.000003
      f+3     :     0.000381
      f-3     :     0.001138


                     *******************************
                     * LOEWDIN POPULATION ANALYSIS *
                     *******************************

----------------------
LOEWDIN ATOMIC CHARGES
----------------------
   0 C :   -0.035012
   1 H :   -0.002022
   2 N :    0.037035

-------------------------------
LOEWDIN REDUCED ORBITAL CHARGES
-------------------------------
  0 C s       :     2.885675  s :     2.885675
      pz      :     0.847818  p :     2.845261
      px      :     1.149897
      py      :     0.847545
      dz2     :     0.031960  d :     0.257823
      dxz     :     0.065104
      dyz     :     0.000056
      dx2y2   :     0.095764
      dxy     :     0.064939
      f0      :     0.004654  f :     0.046254
      f+1     :     0.008037
      f-1     :     0.000769
      f+2     :     0.007783
      f-2     :     0.000026
      f+3     :     0.013366
      f-3     :     0.011618
  1 H s       :     0.824090  s :     0.824090
      pz      :     0.031572  p :     0.152748
      px      :     0.089662
      py      :     0.031513
      dz2     :     0.002982  d :     0.025185
      dxz     :     0.006641
      dyz     :     0.000006
      dx2y2   :     0.008930
      dxy     :     0.006625
  2 N s       :     3.322052  s :     3.322052
      pz      :     0.998249  p :     3.510252
      px      :     1.514206
      py      :     0.997797
      dz2     :     0.011506  d :     0.115397
      dxz     :     0.034747
      dyz     :     0.000030
      dx2y2   :     0.034395
      dxy     :     0.034720
      f0      :     0.001631  f :     0.015265
      f+1     :     0.002463
      f-1     :     0.000270
      f+2     :     0.002727
      f-2     :     0.000009
      f+3     :     0.004089
      f-3     :     0.004076


                      *****************************
                      * MAYER POPULATION ANALYSIS *
                      *****************************

  NA   - Mulliken gross atomic population
  ZA   - Total nuclear charge
  QA   - Mulliken gross atomic charge
  VA   - Mayer's total valence
  BVA  - Mayer's bonded valence
  FA   - Mayer's free valence

  ATOM       NA         ZA         QA         VA         BVA        FA
  0 C      6.0789     6.0000    -0.0789     3.9122     3.9122    -0.0000
  1 H      0.7656     1.0000     0.2344     0.9514     0.9514    -0.0000
  2 N      7.1555     7.0000    -0.1555     2.9863     2.9863     0.0000

  Mayer bond orders larger than 0.1
B(  0-C ,  1-H ) :   0.9386 B(  0-C ,  2-N ) :   2.9736 

-------
TIMINGS
-------

Total SCF time: 0 days 0 hours 0 min 4 sec 

Total time                  ....       4.135 sec
Sum of individual times     ....       3.945 sec  ( 95.4%)

Fock matrix formation       ....       3.754 sec  ( 90.8%)
Diagonalization             ....       0.004 sec  (  0.1%)
Density matrix formation    ....       0.000 sec  (  0.0%)
Population analysis         ....       0.002 sec  (  0.1%)
Initial guess               ....       0.086 sec  (  2.1%)
Orbital Transformation      ....       0.000 sec  (  0.0%)
Orbital Orthonormalization  ....       0.000 sec  (  0.0%)
DIIS solution               ....       0.002 sec  (  0.0%)
SOSCF solution              ....       0.003 sec  (  0.1%)


------------------------------------------------------------------------------- 
                              ORCA-MATRIX DRIVEN CI                            
------------------------------------------------------------------------------- 


Wavefunction type
-----------------
Correlation treatment                      ...      CCSD     
Single excitations                         ... ON
Orbital optimization                       ... OFF
Calculation of Z vector                    ... OFF
Calculation of Brueckner orbitals          ... OFF
Perturbative triple excitations            ... ON
Calculation of F12 correction              ... OFF
Frozen core treatment                      ... chemical core (4 el)
Reference Wavefunction                     ... RHF
  Internal Orbitals:     2 ...    6 (  5 MO's/ 10 electrons)
  Virtual  Orbitals:     7 ...   75 ( 69 MO's              )
Number of AO's                             ...     76
Number of electrons                        ...     14
Number of correlated electrons             ...     10

Algorithmic settings
--------------------
Integral transformation                    ... All integrals via the RI transformation
K(C) Formation                             ... RI-DLPNO
   PNO-Integral Storage                    ... ON DISK
   PNO occupation number cut-off           ... 3.330e-07
   Singles PNO occupation number cut-off   ... 9.990e-09
   PNO Mulliken prescreening cut-off       ... 1.000e-03
   Domain cut-off (Mulliken population)    ... 1.000e-03
   PNO Normalization                       ...    1
Maximum number of iterations               ...        50
Convergence tolerance (max. residuum)      ... 1.000e-05
Level shift for amplitude update           ... 2.000e-01
Maximum number of DIIS vectors             ...         7
DIIS turned on at iteration                ...         0
Damping before turning on DIIS             ...     0.500
Damping after turning on DIIS              ...     0.000
Pair specific amplitude update             ... OFF
Natural orbital iterations                 ... OFF
Perturbative natural orbital generation    ... OFF
Printlevel                                 ... 2

Singles Fock matrix elements calculated using PNOs.

Memory handling:
----------------
Maximum memory for working arrays          ...  10000 MB
Data storage in matrix containers          ... UNCOMPRESSED
Data type for integral storage             ... DOUBLE
In-Core Storage of quantities:
   Amplitudes+Sigma Vector      ... NO
   J+K operators                ... NO
   DIIS vectors                 ... NO
   3-external integrals         ... NO
   4-external integrals         ... NO

Localization treatment:
-----------------------
Localization option                        ...    6
Localization threshhold                    ... -1.0e+00
Using relative localization threshhold     ... 1.0e-08
Neglect threshold for strong pairs         ... 1.000e-04 Eh
Prescreening threshold for very weak pairs ... 1.000e-06 Eh

Initializing the integral package          ... done
Localizing the valence orbitals
------------------------------------------------------------------------------
                           ORCA ORBITAL LOCALIZATION
------------------------------------------------------------------------------

Input orbitals are from                  ... 10_hcn_iso_educt_dlpnoccsdt.proc0.gbw
Output orbitals are to                   ... 10_hcn_iso_educt_dlpnoccsdt.proc0.loc
Max. number of iterations                ... 128
Localizations seeded randomly            ... off
Convergence tolerance                    ... 1.000e-06
Using relative localization threshhold   ... 1.000e-08
Treshold for strong local MOs            ... 9.500e-01
Treshold for bond MOs                    ... 8.500e-01
Operator                                 ... 0
Orbital range for localization           ... 2 to 6
Localization criterion                   ... FOSTER-BOYS (AUGMENTED HESSIAN)
Doing the dipole integrals     ... o.k.
Initial value of the localization sum :    19.881639
ITERATION   0 : L=   24.0317148983 DL=  4.15e+00 (AVERGE_DL)=    0.6442108287 
ITERATION   1 : L=   24.4636988637 DL=  4.32e-01 (AVERGE_DL)=    0.2078422395 
ITERATION   2 : L=   24.4679149404 DL=  4.22e-03 (AVERGE_DL)=    0.0205330872 
ITERATION   3 : L=   24.4679249039 DL=  9.96e-06 (AVERGE_DL)=    0.0009981753 
ITERATION   4 : L=   24.4679249173 DL=  1.34e-08 (AVERGE_DL)=    0.0000366311 
LOCALIZATION SUM CONVERGED

------------------------------------------------------
AUGMENTED HESSIAN OPTIMIZATION OF FOSTER-BOYS ORBITALS
------------------------------------------------------

Spin operator:           0
Orbital window:          2 to 6
Number of iterations:    128
Gradient tolerance:      1.000e-06
Number of pairs:         10
Davidson threshold:      2000
Diagonalization method:  LAPACK
Iter:    0   L: 24.4679249173   Grad. norm: 4.747793e-05
   *** Likely close to a maximum now. ***
       Augmented Hessian eigenvalues:  1.53e-09 -2.54e-09 -3.72e+00 -3.72e+00 ... 
Iter:    1   L: 24.4679249177   Grad. norm: 3.395529e-05
Iter:    2   L: 24.4679249179   Grad. norm: 1.039518e-05
Iter:    3   L: 24.4679249179   Grad. norm: 1.946713e-08
LOCALIZATION HAS CONVERGED.

Eigenvalues of the Hessian:
  0 -5.874e-09
  1 -3.721e+00
  2 -3.722e+00
  3 -1.083e+01
  4 -1.084e+01
  5 -1.263e+01
  6 -2.385e+01
  7 -2.385e+01
  8 -2.502e+01
  9 -6.944e+01


------------------------------------------------------------------------------- 
                    LOCALIZED MOLECULAR ORBITAL COMPOSITIONS                   
------------------------------------------------------------------------------- 

The Mulliken populations for each LMO on each atom are computed
The LMO`s will be ordered according to atom index and type
  (A) Strongly localized MO`s have populations of >=0.950 on one atom
  (B) Two center bond orbitals have populations of >=0.850 on two atoms
  (C) Other MO`s are considered to be `delocalized`

FOUND  -   1 strongly local MO`s
       -   4 two center bond MO`s
       -   0 significantly delocalized MO`s

Rather strongly localized orbitals:
MO   2:   2N  -   0.992849
Bond-like localized orbitals:
MO   6:   2N  -   0.530702  and   0C  -   0.469563
MO   5:   2N  -   0.530867  and   0C  -   0.469441
MO   4:   2N  -   0.530867  and   0C  -   0.469441
MO   3:   1H  -   0.382690  and   0C  -   0.625061
Localized MO's were stored in: 10_hcn_iso_educt_dlpnoccsdt.proc0.loc

Localizing the core orbitals
------------------------------------------------------------------------------
                           ORCA ORBITAL LOCALIZATION
------------------------------------------------------------------------------

Input orbitals are from                  ... 10_hcn_iso_educt_dlpnoccsdt.proc0.loc
Output orbitals are to                   ... 10_hcn_iso_educt_dlpnoccsdt.proc0.loc
Max. number of iterations                ... 128
Localizations seeded randomly            ... off
Convergence tolerance                    ... 1.000e-06
Using relative localization threshhold   ... 1.000e-08
Treshold for strong local MOs            ... 9.500e-01
Treshold for bond MOs                    ... 8.500e-01
Operator                                 ... 0
Orbital range for localization           ... 0 to 1
Localization criterion                   ... FOSTER-BOYS (AUGMENTED HESSIAN)
Doing the dipole integrals     ... o.k.
Initial value of the localization sum :     8.524144
ITERATION   0 : L=    8.5241485748 DL=  4.77e-06 (AVERGE_DL)=    0.0021831626 
ITERATION   1 : L=    8.5241485748 DL=  0.00e+00 (AVERGE_DL)=    0.0000000000 
LOCALIZATION SUM CONVERGED

------------------------------------------------------
AUGMENTED HESSIAN OPTIMIZATION OF FOSTER-BOYS ORBITALS
------------------------------------------------------

Spin operator:           0
Orbital window:          0 to 1
Number of iterations:    128
Gradient tolerance:      1.000e-06
Number of pairs:         1
Davidson threshold:      2000
Diagonalization method:  LAPACK
Iter:    0   L: 8.5241485748   Grad. norm: 9.048289e-18
   *** Likely close to a maximum now. ***
       Augmented Hessian eigenvalues:  4.29e-36 -1.91e+01
Iter:    1   L: 8.5241485748   Grad. norm: 8.271806e-25
LOCALIZATION HAS CONVERGED.

Eigenvalues of the Hessian:
  0 -1.907e+01


------------------------------------------------------------------------------- 
                    LOCALIZED MOLECULAR ORBITAL COMPOSITIONS                   
------------------------------------------------------------------------------- 

The Mulliken populations for each LMO on each atom are computed
The LMO`s will be ordered according to atom index and type
  (A) Strongly localized MO`s have populations of >=0.950 on one atom
  (B) Two center bond orbitals have populations of >=0.850 on two atoms
  (C) Other MO`s are considered to be `delocalized`

FOUND  -   2 strongly local MO`s
       -   0 two center bond MO`s
       -   0 significantly delocalized MO`s

Rather strongly localized orbitals:
MO   1:   2N  -   0.998239
MO   0:   0C  -   0.998477
Localized MO's were stored in: 10_hcn_iso_educt_dlpnoccsdt.proc0.loc

Warning: internal orbitals are localized - no re-canonicalization of internal orbitals

--------------------------
CLOSED-SHELL FOCK OPERATOR
--------------------------

<ss|ss>:         4095 b           55 skpd (  1.3%)    0.002 s ( 0.000 ms/b)
<ss|sp>:         9360 b          147 skpd (  1.6%)    0.008 s ( 0.001 ms/b)
<ss|sd>:         5850 b           64 skpd (  1.1%)    0.004 s ( 0.001 ms/b)
<ss|sf>:         2340 b           24 skpd (  1.0%)    0.002 s ( 0.001 ms/b)
<ss|pp>:         3240 b           20 skpd (  0.6%)    0.004 s ( 0.001 ms/b)
<ss|pd>:         3600 b           42 skpd (  1.2%)    0.004 s ( 0.001 ms/b)
<ss|pf>:         1440 b           18 skpd (  1.2%)    0.002 s ( 0.002 ms/b)
<ss|dd>:         1350 b           17 skpd (  1.3%)    0.002 s ( 0.001 ms/b)
<ss|df>:          900 b           12 skpd (  1.3%)    0.002 s ( 0.002 ms/b)
<ss|ff>:          270 b            3 skpd (  1.1%)    0.001 s ( 0.003 ms/b)
<sp|sp>:         5460 b          110 skpd (  2.0%)    0.006 s ( 0.001 ms/b)
<sp|sd>:         6760 b           81 skpd (  1.2%)    0.007 s ( 0.001 ms/b)
<sp|sf>:         2704 b           30 skpd (  1.1%)    0.005 s ( 0.002 ms/b)
<sp|pp>:         3744 b           32 skpd (  0.9%)    0.009 s ( 0.002 ms/b)
<sp|pd>:         4160 b           45 skpd (  1.1%)    0.010 s ( 0.002 ms/b)
<sp|pf>:         1664 b           18 skpd (  1.1%)    0.006 s ( 0.004 ms/b)
<sp|dd>:         1560 b           18 skpd (  1.2%)    0.004 s ( 0.003 ms/b)
<sp|df>:         1040 b           12 skpd (  1.2%)    0.004 s ( 0.004 ms/b)
<sp|ff>:          312 b            3 skpd (  1.0%)    0.003 s ( 0.010 ms/b)
<sd|sd>:         2145 b           11 skpd (  0.5%)    0.005 s ( 0.002 ms/b)
<sd|sf>:         1690 b            2 skpd (  0.1%)    0.004 s ( 0.002 ms/b)
<sd|pp>:         2340 b            1 skpd (  0.0%)    0.006 s ( 0.003 ms/b)
<sd|pd>:         2600 b            6 skpd (  0.2%)    0.010 s ( 0.004 ms/b)
<sd|pf>:         1040 b            2 skpd (  0.2%)    0.005 s ( 0.005 ms/b)
<sd|dd>:          975 b            3 skpd (  0.3%)    0.007 s ( 0.007 ms/b)
<sd|df>:          650 b            1 skpd (  0.2%)    0.005 s ( 0.008 ms/b)
<sd|ff>:          195 b            0 skpd (  0.0%)    0.002 s ( 0.011 ms/b)
<sf|sf>:          351 b            0 skpd (  0.0%)    0.002 s ( 0.005 ms/b)
<sf|pp>:          936 b            0 skpd (  0.0%)    0.005 s ( 0.005 ms/b)
<sf|pd>:         1040 b            0 skpd (  0.0%)    0.007 s ( 0.007 ms/b)
<sf|pf>:          416 b            0 skpd (  0.0%)    0.004 s ( 0.010 ms/b)
<sf|dd>:          390 b            0 skpd (  0.0%)    0.003 s ( 0.008 ms/b)
<sf|df>:          260 b            0 skpd (  0.0%)    0.005 s ( 0.020 ms/b)
<sf|ff>:           78 b            0 skpd (  0.0%)    0.002 s ( 0.029 ms/b)
<pp|pp>:          666 b            0 skpd (  0.0%)    0.003 s ( 0.004 ms/b)
<pp|pd>:         1440 b            0 skpd (  0.0%)    0.008 s ( 0.006 ms/b)
<pp|pf>:          576 b            0 skpd (  0.0%)    0.005 s ( 0.009 ms/b)
<pp|dd>:          540 b            0 skpd (  0.0%)    0.004 s ( 0.008 ms/b)
<pp|df>:          360 b            0 skpd (  0.0%)    0.005 s ( 0.014 ms/b)
<pp|ff>:          108 b            0 skpd (  0.0%)    0.003 s ( 0.030 ms/b)
<pd|pd>:          820 b            1 skpd (  0.1%)    0.007 s ( 0.009 ms/b)
<pd|pf>:          640 b            0 skpd (  0.0%)    0.008 s ( 0.013 ms/b)
<pd|dd>:          600 b            0 skpd (  0.0%)    0.007 s ( 0.012 ms/b)
<pd|df>:          400 b            0 skpd (  0.0%)    0.009 s ( 0.022 ms/b)
<pd|ff>:          120 b            0 skpd (  0.0%)    0.005 s ( 0.040 ms/b)
<pf|pf>:          136 b            0 skpd (  0.0%)    0.003 s ( 0.022 ms/b)
<pf|dd>:          240 b            0 skpd (  0.0%)    0.005 s ( 0.019 ms/b)
<pf|df>:          160 b            0 skpd (  0.0%)    0.006 s ( 0.036 ms/b)
<pf|ff>:           48 b            0 skpd (  0.0%)    0.003 s ( 0.059 ms/b)
<dd|dd>:          120 b            0 skpd (  0.0%)    0.003 s ( 0.022 ms/b)
<dd|df>:          150 b            0 skpd (  0.0%)    0.005 s ( 0.033 ms/b)
<dd|ff>:           45 b            0 skpd (  0.0%)    0.002 s ( 0.054 ms/b)
<df|df>:           55 b            0 skpd (  0.0%)    0.004 s ( 0.076 ms/b)
<df|ff>:           30 b            0 skpd (  0.0%)    0.003 s ( 0.096 ms/b)
<ff|ff>:            6 b            0 skpd (  0.0%)    0.001 s ( 0.192 ms/b)
Time needed for Fock operator              ...            0.258 sec
Reference energy                           ...    -92.911172912

--------------
DLPNO SETTINGS (2015 fully linear scaling implementation)
--------------

TCutMKN:           1.000e-03
TCutPAO:           1.000e-03
TCutPNO:           3.330e-07
TCutPNOSingles:    9.990e-09
TCutEN:            9.700e-01
TCutPAOExt:        1.000e-01
TCutPairs:         1.000e-04
TCutPre:           1.000e-06
TCutOSV:           1.000e-06
TCutDOij:          1.000e-05
TCutDO:            1.000e-02
TCutC:             1.000e-04
TCutCPAO:          1.000e-03
TCutCMO:           1.000e-03
TScaleDOMP2PreScr: 2.000e+00
TScaleMKNMP2PreScr:1.000e+01
TScalePNOMP2PreScr:1.000e+00
PAO overlap thresh 1.000e-08
Using PNOs for Singles Fock computation
Use new domains
Use fully linear algorithm
TCutTNO:           1.000e-09
TCutMP2Pairs:      1.000e-05
TCutDOStrong:      2.000e-03
TCutMKNStrong:     1.000e-02
TCutMKNWeak:       1.000e-01
TCutDOWeak:        4.000e-03
NTCutTNO:          1

--------------------------
Calculating differential overlap integrals ... ok
--------------------------
ELECTRON PAIR PRESCREENING
--------------------------

Dipole-based pair screening          .... used

   TCutDOij = 1.000000e-05
   TCutPre  = 1.000000e-06
   .... Finished loop over pairs
Total time spent in the prescreening                  ...     0.000 sec
sum of pair energies estimated for screened out pairs ...       0.000000000000 Eh
Thresholds for map construction and integral transformation for crude MP2:
   TCutMKN                    ...     1.0e-02
   TCutDO                     ...     2.0e-02
   TCutPairs                  ...     1.0e-04
   TCutPNO_CrudeMP2           ...     3.3e-07
   TCutPNOSingles_CrudeMP2    ...     1.0e-08
--------------------------------
LOCAL RI TRANSFORMATION (IAVPAO)
--------------------------------

Orbital window:       2 to 6
Number of PAOs:      76
Basis functions:     76 (28 shells)
Aux. functions:     182 (54 shells)

Processing maps (0.0 sec)
Average map sizes:
   Aux shells -> MOs               5.0
   Aux shells -> PAOs             76.0
   MOs        -> AO shells        28.0
   PAOs       -> AO shells        28.0

Calculating integrals (0.2 sec, 0.530 MB)
Sorting integrals (0.0 sec, 0.528 MB)
Total time for the integral transformation: 0.2 sec
--------------------------------
INITIAL GUESS AND PNO GENERATION
--------------------------------

PNO truncation parameters                   .... 
    PAOOverlapThresh   =        1.000e-08

    TCutPairs          =        1.000e-04
    TCutPNO            =        3.330e-07
    TCutPNOSingles     =        9.990e-09
    TCutMP2Pairs       =        1.000e-05
    TCutMKN            =        1.000e-02
    TCutDO             =        2.000e-02

Pair selection                          .... not used
Type of local MP2 treatment                 .... semi-local MP2
Strategy for PNO selection                  .... occupation number selection
Pair density normalization                  .... MP2 norm
Spin component scaling                      .... not used

   .... Finished loop over pairs
Making pair pair interaction lists          ... done

                       ===========================
                         15 OF   15 PAIRS ARE KEPT CCSD PAIRS
                          0 OF   15 PAIRS ARE KEPT MP2 PAIRS FOR (T)
                          0 OF   15 PAIRS ARE SKIPPED
                       ===========================

Total time spent in the initial guess                 ...     0.037 sec
SL-MP2 correlation energy (all non-screened pairs)    ...      -0.325976158162 Eh

Initial PNO correlation energy                        ...      -0.325775681909 Eh
sum of pair energies prescreened and skipped MP2 pairs...       0.000000000000 Eh
sum of pair energies of crude MP2 skipped pairs only  ...       0.000000000000 Eh
sum of MP2 pair energies for pairs that were not kept ...       0.000000000000 Eh
sum of PNO error estimates for the kept pairs         ...      -0.000200476253 Eh
                                                          --------------------
sum of all corrections                                         -0.000200476253
Initial total correlation energy                               -0.325976158162
Thresholds for map construction and integral transformation for fine MP2 and CCSD(T) calculation:
   TCutMKN   ...     1.0e-03
   TCutDO    ...     1.0e-02
   TCutPairs ...     1.0e-04
   TCutCMO   ...     1.0e-03
   TCutCPAO  ...     1.0e-03

Thresholds for map construction and integral transformation for strong Triples:
   TCutMKN   ...     1.0e-02
   TCutDO    ...     2.0e-02
   TCutCMO   ...     1.0e-03
   TCutCPAO  ...     1.0e-03

Thresholds for map construction and integral transformation for weak Triples:
   TCutMKN   ...     1.0e-01
   TCutDO    ...     4.0e-02
   TCutCMO   ...     1.0e-03
   TCutCPAO  ...     1.0e-03

--------------------------------
LOCAL RI TRANSFORMATION (IAVPAO)
--------------------------------

Orbital window:       2 to 6
Number of PAOs:      76
Basis functions:     76 (28 shells)
Aux. functions:     182 (54 shells)

Processing maps (0.0 sec)
Average map sizes:
   Aux shells -> MOs               5.0
   Aux shells -> PAOs             76.0
   MOs        -> AO shells        28.0
   PAOs       -> AO shells        28.0

Calculating integrals (0.2 sec, 0.530 MB)
Sorting integrals (0.0 sec, 0.528 MB)
Total time for the integral transformation: 0.2 sec
--------------------------------
INITIAL GUESS AND PNO GENERATION
--------------------------------

PNO truncation parameters                   .... 
    PAOOverlapThresh   =        1.000e-08

    TCutPairs          =        1.000e-04
    TCutPNO            =        3.330e-07
    TCutPNOSingles     =        9.990e-09
    TCutMP2Pairs       =        1.000e-05
    TCutMKN            =        1.000e-03
    TCutDO             =        1.000e-02

Pair selection                          .... not used
Type of local MP2 treatment                 .... semi-local MP2
Strategy for PNO selection                  .... occupation number selection
Pair density normalization                  .... MP2 norm
Spin component scaling                      .... not used

   .... Finished loop over pairs

 PNO Occupation Number Statistics: 
  | Av. % of trace(Dij) retained        ...  99.961604459926
  | sigma^2 in % of trace(Dij) retained ...   7.48e-03
  | Av. % of trace(Di) retained         ...  99.999752204770
  | sigma^2 in % of trace(Di) retained  ...   1.57e-08
 Distributions of % trace(Dij) recovered:
  |       >= 99.9  ...    14 ( 93.3 % of all pairs)
  |   [99.0, 99.9) ...     1 (  6.7 % of all pairs)
 Distributions of % trace(Di) recovered :
  |       >= 99.9  ...     5 (100.0 % of all I-pairs )

Making pair pair interaction lists          ... done

                       ===========================
                         15 OF   15 PAIRS ARE KEPT
                       ===========================

Total time spent in the initial guess                 ...     0.044 sec
SL-MP2 correlation energy (all non-screened pairs)    ...      -0.326060107782 Eh

Initial PNO correlation energy                        ...      -0.325855600875 Eh
sum of pair energies estimated for screened out pairs ...       0.000000000000 Eh
sum of MP2 pair energies for pairs that were not kept ...       0.000000000000 Eh
sum of PNO error estimates for the kept pairs         ...      -0.000204506907 Eh
                                                          --------------------
sum of all corrections                                         -0.000204506907
Initial total correlation energy                               -0.326060107782
Thresholds for map construction and integral transformation for fine MP2 and CCSD(T) calculation:
   TCutMKN   ...     1.0e-03
   TCutDO    ...     1.0e-02
   TCutPairs ...     1.0e-04
   TCutCMO   ...     1.0e-03
   TCutCPAO  ...     1.0e-03

Time for aux screen maps:            0.000
Time for maps after fine MP2:            0.000
-----------------------------
LOCAL RI TRANSFORMATION (IJV)
-----------------------------

Orbital window:       2 to 6
Basis functions:     76 (28 shells)
Aux. functions:     182 (54 shells)

Processing maps (0.0 sec)
Average map sizes:
   Aux shells -> MOs(i)            5.0
   Aux shells -> MOs(j)            5.0
   MOs        -> AO shells        28.0

Calculating integrals (0.2 sec, 0.037 MB)
Sorting integrals (0.0 sec, 0.035 MB)
Total time for the integral transformation: 0.2 sec
--------------------------------
LOCAL RI TRANSFORMATION (VABPAO)
--------------------------------

Number of PAOs:      76
Basis functions:     76 (28 shells)
Aux. functions:     182 (54 shells)

Processing maps (0.0 sec)
Average map sizes:
   Aux shells -> PAOs             76.0
   PAOs       -> AO shells        28.0

Calculating integrals (0.2 sec, 8.022 MB)
Finished


-------------------------------------
Pair Pair Term precalculation with     
RI-(ij|mn) and (im|jn) transformation  
ON THE FLY                             
-------------------------------------

   IBatch   1 (of   1)              ... done (    0.796 sec)
Total EXT                           ...           0.796 sec

---------------------
RI-PNO TRANSFORMATION
---------------------

Total Number of PNOs                   ...   649
Average number of PNOs per pair        ...    43
Maximal number of PNOs per pair        ...    49
   #pairs with  1 -  5 PNOs   :    0
   #pairs with  6 - 10 PNOs   :    0
   #pairs with 11 - 15 PNOs   :    0
   #pairs with 16 - 20 PNOs   :    0
   #pairs with 21 - 25 PNOs   :    0
   #pairs with 26 - 30 PNOs   :    0
   #pairs with 31 - 35 PNOs   :    2
   #pairs with 36 - 40 PNOs   :    1
   #pairs with 41 - 45 PNOs   :    9
   #pairs with 46 - 50 PNOs   :    3

Generation of (ij|ab)[P] integrals            ... on
Generation of (ia|bc)[P],(ja|bc)[P] integrals ... on
Storage of 3 and 4 external integrals         ... on
Generation of ALL (ka|bc)[P] integrals        ... on
Keep RI integrals in memory                   ... off

Ibatch:  1 (of  1)
Starting 2-4 index PNO integral generation ... done

Timings:
Total PNO integral transformation time     ...          0.360 sec
Size of the 3-external file                ...         9 MB
Size of the 4-external file                ...        55 MB
Size of the IKJL file                      ...         0 MB
Size of the all 3-external file            ...        24 MB
Size of the 1-external file                ...         0 MB

Making pair/pair overlap matrices          ... done (    0.009 sec)
Size of the pair overlap file              ... 3 MB
Redoing the guess amplitudes               ... done (    0.000 sec)

-------------------------
FINAL STARTUP INFORMATION
-------------------------

E(0)                                       ...    -92.911172912
E(SL-MP2)                                  ...     -0.326060108
E(SL-MP2) including corrections            ...     -0.326060108
Initial E(tot)                             ...    -93.237233019
<T|T>                                      ...      0.100280128
Number of pairs included                   ... 15
Total number of pairs                      ... 15

------------------------------------------------
                  RHF COUPLED CLUSTER ITERATIONS
------------------------------------------------

Number of PNO amplitudes to be optimized   ...        28411
Number of non-PNO amplitudes               ...        71415
Untruncated number of regular amplitudes   ...        71415

Iter       E(tot)           E(Corr)          Delta-E          Residual     Time
  0    -93.237238401     -0.325860982      0.000199125      0.019430084    2.20
                           *** Turning on DIIS ***
  1    -93.244933530     -0.333556112     -0.007695129      0.010847367    2.05
  2    -93.255525287     -0.344147869     -0.010591757      0.004905094    2.07
  3    -93.258636471     -0.347259052     -0.003111184      0.002879880    2.01
  4    -93.259680489     -0.348303071     -0.001044018      0.000918822    1.95
  5    -93.259987854     -0.348610435     -0.000307364      0.000370397    2.03
  6    -93.260048378     -0.348670960     -0.000060525      0.000099542    2.03
  7    -93.260055823     -0.348678405     -0.000007445      0.000046607    2.03
  8    -93.260056589     -0.348679171     -0.000000766      0.000016544    2.06
  9    -93.260056163     -0.348678745      0.000000426      0.000004598    1.99
               --- The Coupled-Cluster iterations have converged ---

----------------------
COUPLED CLUSTER ENERGY
----------------------

E(0)                                       ...    -92.911172912
E(CORR)(strong-pairs)                      ...     -0.348678745
E(CORR)(weak-pairs)                        ...     -0.000204507
E(CORR)(corrected)                         ...     -0.348883252
E(TOT)                                     ...    -93.260056163
Singles Norm <S|S>**1/2                    ...      0.045078569  
T1 diagnostic                              ...      0.014255095  

------------------
LARGEST AMPLITUDES
------------------
   6->  7   6->  7       0.058900
   4->  7   4->  7       0.058778
   5->  7   5->  7       0.058778
   3-> 10   3-> 10       0.043931
   5->  7   4->  7       0.037001
   6->  7   5->  7       0.037000
   6->  7   4->  7       0.037000
   2->  7   2->  7       0.034961
   2->  8   2->  8       0.034960
   3->  9   3->  9       0.032123
   2->  9   2->  9       0.028338
   6-> 13   6->  7       0.027847
   6->  7   6-> 13       0.027847
   4-> 13   4->  7       0.027821
   4->  7   4-> 13       0.027821
   5->  7   5-> 13       0.027821


-------------------------------------------
DLPNO BASED TRIPLES CORRECTION
-------------------------------------------

Singles multiplier          ...  1.000000
TCutTNO                     ... 1.000e-09
TCutMP2Pairs                ... 1.000e-05
TCutDOStrong                ... 2.000e-02
TCutMKNStrong               ... 1.000e-02
TCutDOWeak                  ... 4.000e-02
TCutMKNWeak                 ... 1.000e-01

Fragment selection                          .... not used
Number of Triples that are to be computed   ...        30

 . . . . . . . . .
10% done  
20% done  
30% done  
40% done  
50% done  
60% done  
70% done  
80% done  
90% done               (      2.208 sec)
Triples timings:
Total time for T0               ...     2.257 sec
Total time for Iterative (T)    ...     0.000 sec
Total time of overall (T)       ...     2.257 sec

Triples List generation         ...     0.000 sec
TNO generation                  ...     0.048 sec
Pair density generation         ...     0.000 sec
Look up tables                  ...     0.000 sec
Generating 3-index integrals    ...     0.279 sec
  Make 4-ind.int. from 3-ind.int...     0.247 sec
  Projecting amplitudes (D + S) ...     0.028 sec
  Downprojecting integrals      ...     0.000 sec
  Energy contr. (sum over a,b,c)...     1.360 sec
Fitting ET(->0)                 ...     0.000 sec

Everything after 3-index        ...     1.929 sec

Timing details:
 TNO integrals                  ...     0.496 sec
   Reading 3-index integrals    ...     0.002 sec
   Sorting integrals            ...     0.110 sec
       Sorting integrals 1      ...     0.000 sec
       Sorting integrals 2      ...     0.018 sec
       Sorting integrals 3      ...     0.011 sec
       Sorting integrals 4      ...     0.000 sec
       Sorting integrals 5      ...     0.001 sec
       Sorting integrals 6      ...     0.079 sec
   Calculating local VM**-1/2   ...     0.006 sec
   Orthogonal. integrals        ...     0.013 sec
   Multipl. 3-index integrals   ...     0.366 sec
   All concerning IRIab (w/TNO) ...     0.131 sec

 Calculate W0/W1                ...     0.294 sec
 W 3-ext contribution           ...     0.179 sec
 W 3-int contribution           ...     0.031 sec
 Sorting W                      ...     0.078 sec

 V exchange contribution        ...     0.660 sec

 Timings for Triples without generation
     of 3-index integrals       ...     1.929 sec
       0 weak pairs             ...     1.929 sec
       1 weak pair              ...     0.000 sec
       2 weak pairs             ...     0.000 sec
       3 weak pairs             ...     0.000 sec
  Extra time for extrapolation  ...     0.000 sec

Number of Triples   (0, 1, 2, 3 weak pairs; overall):     30       0       0       0  (    30)
Number of Atoms     (0, 1, 2, 3 weak pairs; overall):    3.0     0.0     0.0     0.0  (     3)
Number of PAOs      (0, 1, 2, 3 weak pairs; overall):   76.0     0.0     0.0     0.0  (    76)
Number of AuxFcns   (0, 1, 2, 3 weak pairs; overall):  166.0     0.0     0.0     0.0  (   182)
Number of TNOs      (0, 1, 2, 3 weak pairs         ):   65.0     0.0     0.0     0.0
Aver. Number of NTNO, Atoms, PAOs, AuxFcns / Triples:     30    65.0     3.0    76.0   166.0

Triples Correction (T)                     ...     -0.016787388
Final correlation energy                   ...     -0.365670640
E(CCSD)                                    ...    -93.260056163
E(CCSD(T))                                 ...    -93.276843551


Maximum memory used throughout the entire calculation: 432.7 MB


------------------------------------------------------------------------------- 
                                     TIMINGS                                   
------------------------------------------------------------------------------- 


Total execution time                   ...       25.245 sec

Localization of occupied MO's          ...        0.229 sec (  0.9%)
Fock Matrix Formation                  ...        0.258 sec (  1.0%)
Global overlap, Fock, MKN matrices     ...        0.075 sec (  0.3%)
Differential overlap integrals         ...        0.021 sec (  0.1%)
Organizing maps                        ...        0.001 sec (  0.0%)
RI 3-index integral generations        ...        0.625 sec (  2.5%)
RI-PNO integral transformation         ...        1.168 sec (  4.6%)
Initial Guess                          ...        0.092 sec (  0.4%)
DIIS Solver                            ...        0.021 sec (  0.1%)
State Vector Update                    ...        0.001 sec (  0.0%)
Sigma-vector construction              ...       20.405 sec ( 80.8%)
  <D|H|D>(0-ext)                       ...        0.168 sec (  0.8% of sigma)
  <D|H|D>(2-ext Fock)                  ...        0.006 sec (  0.0% of sigma)
  <D|H|D>(2-ext)                       ...        0.424 sec (  2.1% of sigma)
  <D|H|D>(4-ext)                       ...        3.125 sec ( 15.3% of sigma)
  <D|H|D>(4-ext-corr)                  ...       15.734 sec ( 77.1% of sigma)
  CCSD doubles correction              ...        0.023 sec (  0.1% of sigma)
  <S|H|S>                              ...        0.060 sec (  0.3% of sigma)
  <S|H|D>(1-ext)                       ...        0.029 sec (  0.1% of sigma)
  <D|H|S>(1-ext)                       ...        0.002 sec (  0.0% of sigma)
  <S|H|D>(3-ext)                       ...        0.164 sec (  0.8% of sigma)
  Fock-dressing                        ...        0.433 sec (  2.1% of sigma)
  Singles amplitudes                   ...        0.005 sec (  0.0% of sigma)
  (ik|jl)-dressing                     ...        0.056 sec (  0.3% of sigma)
  (ij|ab),(ia|jb)-dressing             ...        0.164 sec (  0.8% of sigma)
  Pair energies                        ...        0.002 sec (  0.0% of sigma)
Total Time for computing (T)           ...        2.259 sec (  8.9% of ALL)


-------------------------   --------------------
FINAL SINGLE POINT ENERGY       -93.276843551395
-------------------------   --------------------


                            ***************************************
                            *     ORCA property calculations      *
                            ***************************************

                                    ---------------------
                                    Active property flags
                                    ---------------------
   (+) Dipole Moment


------------------------------------------------------------------------------
                       ORCA ELECTRIC PROPERTIES CALCULATION
------------------------------------------------------------------------------

Dipole Moment Calculation                       ... on
Quadrupole Moment Calculation                   ... off
Polarizability Calculation                      ... off
GBWName                                         ... 10_hcn_iso_educt_dlpnoccsdt.gbw
Electron density file                           ... 10_hcn_iso_educt_dlpnoccsdt.scfp.tmp
The origin for moment calculation is the CENTER OF MASS  = ( 1.007541,  0.946719 -1.043520)

-------------
DIPOLE MOMENT
-------------
                                X             Y             Z
Electronic contribution:      0.23000      -0.00000       0.00760
Nuclear contribution   :     -1.52457       0.00000      -0.04671
                        -----------------------------------------
Total Dipole Moment    :     -1.29457      -0.00000      -0.03910
                        -----------------------------------------
Magnitude (a.u.)       :      1.29516
Magnitude (Debye)      :      3.29204



--------------------
Rotational spectrum 
--------------------
 
Rotational constants in cm-1: 4740387.317016     1.476718     1.476718 
Rotational constants in MHz : 142113236564.020325 44270.902543 44270.888752 

 Dipole components along the rotational axes: 
x,y,z [a.u.] :    -1.295162    -0.000721    -0.000000 
x,y,z [Debye]:    -3.292041    -0.001833    -0.000000 

 

Timings for individual modules:

Sum of individual times         ...       29.631 sec (=   0.494 min)
GTO integral calculation        ...        0.204 sec (=   0.003 min)   0.7 %
SCF iterations                  ...        4.152 sec (=   0.069 min)  14.0 %
MDCI module                     ...       25.275 sec (=   0.421 min)  85.3 %
                             ****ORCA TERMINATED NORMALLY****
TOTAL RUN TIME: 0 days 0 hours 0 minutes 29 seconds 736 msec
